ITEM: TIMESTEP
0
ITEM: NUMBER OF ATOMS
150
ITEM: BOX BOUNDS pp pp pp
7.4967239047702026e-03 1.3110817373279735e+01
7.4967239047702026e-03 1.3110817373279735e+01
7.4967239047702026e-03 1.3110817373279735e+01
ITEM: ATOMS id type x y z 
70 2 2.10918 5.0061 2.26477 
128 2 3.63135 6.93088 1.22917 
40 1 3.94197 1.54742 3.02409 
32 1 1.5569 3.55017 2.70368 
50 1 2.13916 6.32302 1.33604 
101 2 3.77724 0.88868 1.52843 
95 2 0.872847 2.57955 1.56529 
62 2 2.84109 2.69013 3.2137 
124 2 5.48735 2.05068 3.16948 
55 1 6.91225 1.5085 3.76611 
54 1 6.2496 7.03326 5.37649 
21 2 4.83309 6.96607 4.60435 
14 2 0.504261 3.8095 3.90913 
68 2 2.55265 6.55856 6.03423 
72 2 2.31012 5.60077 8.41981 
94 1 1.92291 1.74428 7.22609 
36 2 3.51232 1.77265 7.58919 
146 2 6.03225 6.31854 6.82489 
19 1 1.42611 6.12967 7.13562 
20 1 4.96843 1.19629 8.0278 
113 2 6.13924 2.30764 8.24602 
79 2 0.792317 2.21947 8.33201 
42 2 1.60139 2.65963 5.92991 
127 2 3.52551 4.08703 10.4944 
33 1 2.55964 5.32078 10.0047 
116 2 5.98119 2.93339 10.7647 
112 2 1.0248 5.31268 10.5986 
131 2 6.60303 4.77671 9.05678 
56 2 3.30362 6.64697 10.6383 
52 1 6.85601 3.19067 9.41228 
139 2 4.22532 2.60912 12.6466 
117 2 5.46323 5.02452 12.1268 
77 1 4.57389 1.11836 0.128761 
110 2 1.62944 5.79429 12.9926 
16 1 6.6831 6.08476 12.3496 
9 2 6.15976 1.14151 0.545626 
149 2 6.96518 7.03729 11.062 
140 2 6.23082 7.02251 0.502303 
34 1 4.73134 3.68765 11.5315 
83 1 6.01343 10.3942 2.22392 
65 1 4.86772 7.86587 0.778391 
104 2 5.20573 9.03283 1.84816 
138 2 4.88538 11.4412 2.78254 
148 2 1.06499 7.46499 1.80742 
142 2 6.83976 10.7881 0.874828 
96 1 3.40308 7.55754 5.09382 
78 1 3.89158 11.8395 3.99674 
118 2 4.75577 11.3287 5.37395 
125 2 6.53838 0.142366 4.5778 
115 2 2.52878 8.00815 3.81894 
87 2 2.39434 11.2475 4.0108 
121 2 7.03621 10.1583 3.4918 
61 2 6.65028 8.60871 5.54089 
39 2 3.76631 0.343903 4.11659 
92 1 0.79607 10.9375 4.31109 
102 2 0.758915 10.9181 5.94815 
58 1 6.14299 12.2653 5.80072 
89 1 0.941781 7.96735 3.35934 
137 2 7.31091 11.1586 5.90104 
132 2 3.74408 8.92516 5.96152 
90 2 2.96111 11.1144 7.27729 
80 1 4.21008 10.3144 6.63125 
67 1 1.42487 11.6719 7.23631 
41 2 5.36318 10.2464 7.75945 
12 2 1.5453 0.167678 6.95506 
44 2 5.55918 0.0627709 7.00255 
24 2 0.586565 11.3292 8.57369 
120 2 5.56393 11.2329 10.2751 
75 1 5.65898 9.90487 9.32769 
28 2 4.47014 8.89248 9.79851 
48 1 5.46582 12.7955 10.7221 
49 2 7.00762 0.238249 10.924 
97 1 3.59649 8.21112 10.985 
136 2 7.10408 9.22665 9.6173 
133 2 4.78443 0.467786 9.46859 
37 2 4.42225 8.39911 12.387 
108 2 4.559 0.00766993 12.0402 
15 2 2.12301 8.88315 11.15 
25 1 12.9187 1.43516 1.05502 
109 2 8.53053 5.36648 2.37154 
11 1 7.64432 1.64344 0.974253 
99 2 7.88413 1.1553 2.50812 
135 2 11.9851 0.958084 2.32731 
74 2 7.67295 3.26026 1.026 
63 1 8.63917 4.57197 0.967592 
126 2 9.90282 7.0433 3.92251 
51 2 7.56089 2.5991 4.7663 
88 2 9.36148 4.49703 4.7644 
84 1 8.58542 3.42578 5.72885 
17 1 8.87837 5.79539 3.89647 
122 2 7.49758 6.30841 4.63311 
5 2 11.0446 0.692591 4.84451 
93 1 0.369631 3.69236 5.51852 
81 2 12.0997 2.87419 5.82197 
43 2 11.7193 0.967852 7.45858 
4 2 7.79856 4.31919 6.83948 
103 2 8.31396 6.59604 8.03496 
129 2 9.59646 2.33885 6.39101 
22 1 11.055 1.66585 6.13855 
7 1 7.12387 5.53145 7.71968 
144 2 0.505063 4.90152 6.59523 
2 1 9.68769 6.71881 8.92746 
76 2 8.46828 3.00275 9.53725 
13 1 9.97606 3.60349 9.79576 
23 2 9.8739 5.21199 9.5229 
106 2 11.2329 2.98812 8.94717 
86 1 12.3602 1.82365 8.71811 
6 2 12.3125 0.842614 10.0123 
30 2 8.09612 5.39577 12.7734 
111 2 12.2653 4.88806 12.4504 
57 1 11.2363 3.6348 12.707 
98 2 11.992 2.2371 13.0789 
123 2 8.62946 1.09875 12.9154 
35 2 10.3618 3.39839 11.3578 
85 1 0.353945 5.89096 11.9755 
119 2 10.1663 4.05596 0.758281 
145 2 11.8864 11.0974 1.24009 
141 2 9.37018 10.2771 1.13334 
18 1 10.6029 10.6365 2.13178 
147 2 10.8739 9.39983 3.14012 
53 2 10.3515 11.9942 3.01938 
105 2 9.12539 9.30073 4.99012 
150 2 12.8617 12.1062 3.84337 
82 1 10.4541 8.48988 4.42397 
47 1 7.60571 9.82471 5.00907 
66 2 11.4639 8.28892 5.66676 
8 1 11.5296 13.0232 3.50503 
46 2 0.480028 9.50698 3.62665 
143 2 0.234607 6.85498 4.25472 
91 1 12.0286 8.03049 7.16756 
29 2 11.9342 9.51232 7.84802 
64 2 10.9501 7.11271 7.99749 
134 2 0.432324 7.41497 7.40655 
69 2 11.2466 11.5695 9.50187 
27 1 7.90921 8.33293 10.7161 
130 2 9.31783 7.79408 10.1022 
26 1 11.2543 12.8273 10.5356 
114 2 12.77 9.53258 10.2905 
45 1 12.363 10.49 9.04535 
60 2 9.7703 0.375181 10.6287 
59 1 8.49584 0.14357 11.598 
38 1 8.1994 10.4481 0.0147894 
100 2 8.02835 9.17351 12.1157 
3 2 11.7594 12.2054 11.9535 
107 2 8.57046 11.7166 12.171 
73 1 12.7914 11.6826 0.0175447 
1 2 0.05276 7.50908 11.9106 
31 2 0.398837 13.0947 0.49871 
10 2 0.474795 10.3546 12.5706 
71 1 0.55003 9.04705 11.5686 
