ITEM: TIMESTEP
0
ITEM: NUMBER OF ATOMS
150
ITEM: BOX BOUNDS pp pp pp
7.2397669048578448e-03 1.3034687993701745e+01
7.2397669048578448e-03 1.3034687993701745e+01
7.2397669048578448e-03 1.3034687993701745e+01
ITEM: ATOMS id type x y z 
70 2 1.59991 4.55537 1.75448 
128 2 3.61804 6.27885 1.31991 
40 1 3.76941 1.38157 2.94442 
32 1 1.29736 3.1788 2.53749 
50 1 2.05927 5.92859 1.04492 
101 2 3.64514 0.698416 1.45503 
95 2 0.66497 1.95435 1.65965 
62 2 2.72246 2.59091 3.08314 
124 2 5.32616 1.83123 3.14535 
55 1 6.70111 1.1486 3.70542 
54 1 6.00123 6.56389 5.16385 
21 2 4.6065 6.63941 4.34822 
14 2 0.219662 3.44789 3.71217 
68 2 2.31267 6.27789 5.70428 
72 2 2.13065 5.06697 7.98782 
94 1 1.75807 1.39374 7.00252 
36 2 3.3448 1.41628 7.37359 
146 2 5.77086 5.89364 6.63526 
19 1 1.22548 5.75565 6.79643 
20 1 4.82011 0.893117 7.82178 
113 2 5.97399 2.01624 8.07071 
79 2 0.662159 1.80996 8.16508 
42 2 1.3842 2.34707 5.74708 
127 2 3.32131 3.83111 10.2601 
33 1 2.40052 5.01594 9.59099 
116 2 5.67597 2.58908 10.569 
112 2 0.872039 5.13831 10.1994 
131 2 6.37794 4.45951 8.94941 
56 2 3.19227 6.37537 10.0598 
52 1 6.64762 2.86887 9.28731 
139 2 3.97157 2.42461 12.5032 
117 2 5.33456 4.7079 11.9507 
77 1 4.43448 0.964585 0.0593907 
110 2 1.76849 5.66567 12.4918 
16 1 6.5797 5.75174 12.168 
9 2 6.01738 1.06675 0.490502 
149 2 6.80243 6.70842 10.8676 
140 2 6.17085 6.63407 0.45597 
34 1 4.49357 3.43895 11.336 
83 1 5.71132 9.98659 2.0733 
65 1 4.72123 7.31504 0.743648 
104 2 4.93724 8.6058 1.69431 
138 2 4.58632 11.0215 2.65933 
148 2 1.16507 7.23626 1.45992 
142 2 6.50211 10.4289 0.711911 
96 1 3.21328 7.30726 4.84567 
78 1 3.64413 11.5475 3.86686 
118 2 4.48392 10.9978 5.2537 
125 2 6.3056 12.7072 4.29081 
115 2 2.31334 7.91839 3.65689 
87 2 2.12965 11.0051 3.88193 
121 2 6.75805 9.71212 3.31886 
61 2 6.51739 8.10318 5.35996 
39 2 3.56708 0.136302 3.98998 
92 1 0.540205 10.63 4.09971 
102 2 0.473473 10.4994 5.73571 
58 1 5.93782 11.8397 5.60492 
89 1 0.809552 7.79235 2.96381 
137 2 7.05244 10.6848 5.72437 
132 2 3.66233 8.55887 5.82686 
90 2 2.6673 10.6511 7.12155 
80 1 4.0039 9.96927 6.52574 
67 1 1.16534 11.2817 6.99471 
41 2 5.14934 10.0305 7.66947 
12 2 1.38083 12.8595 6.6434 
44 2 5.44863 12.8378 6.76834 
24 2 0.319361 11.0668 8.35274 
120 2 5.5726 10.9633 10.2092 
75 1 5.55886 9.66863 9.21429 
28 2 4.37269 8.70026 9.77917 
48 1 5.36201 12.5391 10.5703 
49 2 6.88539 0.100183 10.7632 
97 1 3.45968 7.80838 10.7881 
136 2 6.9865 8.91035 9.38368 
133 2 4.64372 0.13088 9.25005 
37 2 4.19172 7.69083 12.2507 
108 2 4.46482 12.8936 11.883 
15 2 1.98273 8.45028 11.0492 
25 1 12.5524 0.962147 1.06578 
109 2 8.54622 5.19512 2.19184 
11 1 7.54132 1.4509 0.926789 
99 2 7.73362 0.959093 2.46603 
135 2 11.4198 0.550353 2.18752 
74 2 7.7247 3.05244 0.933049 
63 1 8.67508 4.37283 0.803671 
126 2 9.67612 6.51036 4.1806 
51 2 7.25551 2.0449 4.92672 
88 2 9.01627 3.90946 4.56535 
84 1 8.32063 2.97807 5.72627 
17 1 8.65562 5.31505 3.8056 
122 2 7.18292 5.74163 4.4108 
5 2 10.5927 0.301279 4.75449 
93 1 0.0990977 3.29141 5.30653 
81 2 11.8047 2.43597 5.69127 
43 2 11.5166 0.53205 7.33883 
4 2 7.63704 4.00682 6.78228 
103 2 8.02959 6.31694 7.91356 
129 2 9.35499 1.95105 6.44588 
22 1 10.7653 1.23677 6.06855 
7 1 6.87723 5.21506 7.60359 
144 2 0.231745 4.62512 6.19668 
2 1 9.46905 6.35761 8.70559 
76 2 8.25322 2.67683 9.50942 
13 1 9.79781 3.24661 9.65596 
23 2 9.67313 4.83216 9.25228 
106 2 11.0485 2.57291 8.82589 
86 1 12.168 1.39866 8.58962 
6 2 12.1526 0.447546 9.90533 
30 2 8.04378 5.11362 12.5178 
111 2 12.3704 4.45124 12.2519 
57 1 11.2257 3.30679 12.5274 
98 2 11.8261 1.84458 12.9267 
123 2 8.49551 0.810648 12.8183 
35 2 10.2823 3.1501 11.2071 
85 1 0.340299 5.60031 11.6712 
119 2 10.2094 3.86067 0.647017 
145 2 11.5195 10.5946 1.16077 
141 2 8.99755 9.82632 1.05102 
18 1 10.2639 10.0604 2.04014 
147 2 10.5772 8.71504 2.88186 
53 2 10.0227 11.3563 3.02725 
105 2 8.93147 8.92291 4.78037 
150 2 12.5218 11.8184 3.71825 
82 1 10.2507 8.02262 4.3181 
47 1 7.38662 9.37237 4.81308 
66 2 11.3645 8.08751 5.48388 
8 1 11.0744 12.55 3.41299 
46 2 0.249897 9.30832 3.20856 
143 2 13.0311 6.64413 3.72332 
91 1 11.8058 7.70043 6.99756 
29 2 11.6937 9.11019 7.8023 
64 2 10.6654 6.74667 7.68964 
134 2 0.25416 7.01431 7.22736 
69 2 10.9303 11.1784 9.38121 
27 1 7.75823 7.98816 10.4873 
130 2 9.18027 7.42642 9.91602 
26 1 11.0623 12.399 10.4485 
114 2 12.6321 9.30843 10.2076 
45 1 12.1087 10.1667 8.93227 
60 2 9.62785 0.114806 10.545 
59 1 8.33346 12.9238 11.481 
38 1 7.88802 10.0926 12.9194 
100 2 7.80005 8.84368 11.8819 
3 2 11.5779 11.7009 11.8223 
107 2 8.32683 11.3846 12.0325 
73 1 12.5288 11.166 0.0272273 
1 2 12.8472 7.15514 11.7212 
31 2 0.16273 12.5597 0.574527 
10 2 0.366665 9.87048 12.5823 
71 1 0.418567 8.66983 11.4687 
