ITEM: TIMESTEP
0
ITEM: NUMBER OF ATOMS
150
ITEM: BOX BOUNDS pp pp pp
-3.5450653031789117e-03 1.3039371686821742e+01
-3.5450653031789117e-03 1.3039371686821742e+01
-3.5450653031789117e-03 1.3039371686821742e+01
ITEM: ATOMS id type x y z 
70 2 1.89284 5.34423 2.65151 
128 2 3.88613 7.10162 2.08058 
40 1 3.93047 2.14127 3.75587 
32 1 1.51902 3.99557 3.46119 
50 1 2.34361 6.66022 1.83433 
101 2 3.87722 1.65938 2.19107 
95 2 0.874756 2.80735 2.54158 
62 2 2.90452 3.34249 4.03098 
124 2 5.48207 2.55173 4.02103 
55 1 6.87551 1.96464 4.61208 
54 1 6.17335 7.30824 5.82993 
21 2 4.73222 7.51648 5.13132 
14 2 0.48497 4.29433 4.66645 
68 2 2.45087 7.17124 6.55743 
72 2 2.43562 5.94096 8.75822 
94 1 1.97401 2.0905 7.82384 
36 2 3.58409 2.00255 8.10248 
146 2 5.95273 6.57883 7.2744 
19 1 1.41277 6.63325 7.67921 
20 1 5.08214 1.67013 8.65969 
113 2 6.20866 2.84896 8.81563 
79 2 0.884993 2.41698 9.02783 
42 2 1.64958 3.2372 6.72833 
127 2 3.69992 4.89213 11.0362 
33 1 2.7671 6.03136 10.3392 
116 2 6.01953 3.56109 11.3383 
112 2 1.23943 6.15233 10.9319 
131 2 6.63718 5.31433 9.60942 
56 2 3.46203 7.46578 10.7256 
52 1 6.92177 3.73934 9.99607 
139 2 4.28098 3.36471 0.173553 
117 2 5.65924 5.70712 12.6892 
77 1 4.74538 1.94535 0.845376 
110 2 2.1253 6.34973 0.249464 
16 1 6.86886 6.79601 12.8777 
9 2 6.30257 2.15671 1.33073 
149 2 7.20867 7.6191 11.5098 
140 2 6.28564 7.8083 0.979739 
34 1 4.8436 4.41586 12.1011 
83 1 6.08027 10.7193 2.81836 
65 1 4.79724 8.28968 1.45659 
104 2 5.02939 9.50892 2.504 
138 2 5.14402 11.9195 3.44614 
148 2 1.34897 7.92462 2.14261 
142 2 6.90721 10.9623 1.43058 
96 1 3.31955 8.15517 5.61948 
78 1 4.03375 12.2733 4.5764 
118 2 4.72909 11.8238 6.07781 
125 2 6.56561 0.521467 5.29669 
115 2 2.32008 8.48071 4.40254 
87 2 2.6095 11.5477 4.35891 
121 2 7.12571 10.3598 4.03755 
61 2 6.82109 8.79607 6.05754 
39 2 3.71565 0.814545 4.68843 
92 1 0.993244 11.3575 4.59977 
102 2 0.903051 11.2488 6.23546 
58 1 6.21162 12.5761 6.52814 
89 1 0.859734 8.46537 3.61508 
137 2 7.28187 11.3695 6.47616 
132 2 3.73 9.4746 6.52657 
90 2 2.84059 11.5395 7.93525 
80 1 4.15368 10.8086 7.33702 
67 1 1.31968 12.059 7.58862 
41 2 5.31878 10.7297 8.47093 
12 2 1.48994 0.610815 7.2856 
44 2 5.76465 0.441799 7.79447 
24 2 0.263394 11.7788 8.77257 
120 2 5.93734 12.0004 10.8222 
75 1 5.97712 10.5991 9.98259 
28 2 4.97674 9.61699 10.8085 
48 1 5.66126 0.456471 11.4162 
49 2 7.16208 1.06632 11.6689 
97 1 3.72465 8.87539 11.5003 
136 2 7.45013 9.91603 10.1171 
133 2 4.86805 1.17777 10.1977 
37 2 4.03752 8.69759 0.0540412 
108 2 4.83246 0.728694 12.7962 
15 2 2.36052 9.74945 11.3502 
25 1 12.7684 1.92787 1.79699 
109 2 8.80133 6.09958 2.98487 
11 1 7.85333 2.33723 1.82694 
99 2 7.93144 1.86259 3.38447 
135 2 11.6922 1.39165 2.92911 
74 2 8.27584 3.88895 1.70764 
63 1 9.00703 5.34169 1.57613 
126 2 9.85483 7.30404 5.06895 
51 2 7.36087 2.94854 5.78788 
88 2 9.25912 4.66464 5.26158 
84 1 8.59794 3.75418 6.45289 
17 1 8.87268 6.10824 4.59881 
122 2 7.33475 6.44007 5.0942 
5 2 11.2159 0.971553 5.55814 
93 1 0.346829 4.13106 6.26285 
81 2 12.1133 3.20089 6.63476 
43 2 11.6507 1.27477 8.22748 
4 2 8.00249 4.82031 7.52435 
103 2 8.20482 7.18812 8.50234 
129 2 9.61441 2.61511 7.01036 
22 1 11.0886 1.94513 6.85048 
7 1 7.11881 6.01216 8.23535 
144 2 0.401097 5.49999 7.11158 
2 1 9.68588 7.15765 9.2029 
76 2 8.53016 3.55136 10.2238 
13 1 10.0634 4.14213 10.4101 
23 2 9.92222 5.67081 9.834 
106 2 11.3045 3.34425 9.68047 
86 1 12.3748 2.12011 9.44771 
6 2 12.3665 1.15685 10.7555 
30 2 8.25355 6.11656 0.355869 
111 2 12.6508 5.57815 12.8885 
57 1 11.5397 4.43192 0.207729 
98 2 12.1149 2.98233 0.720989 
123 2 8.72672 1.44887 0.791615 
35 2 10.5336 4.19958 11.9746 
85 1 0.761579 6.61963 12.4144 
119 2 10.5855 5.06956 1.35712 
145 2 12.0124 11.28 1.8502 
141 2 9.46961 10.7499 1.73365 
18 1 10.7374 10.814 2.7518 
147 2 10.8216 9.41931 3.56931 
53 2 10.6174 12.0864 3.79182 
105 2 9.28634 9.73201 5.56897 
150 2 0.086918 12.6699 4.2353 
82 1 10.5666 8.77182 5.04425 
47 1 7.71178 10.0774 5.56211 
66 2 11.7476 8.94161 6.1466 
8 1 11.6187 0.2895 4.13896 
46 2 0.477 10.0458 3.812 
143 2 12.8559 7.41279 4.19423 
91 1 11.9926 8.49063 7.68295 
29 2 11.6251 9.7996 8.5824 
64 2 10.8374 7.41897 8.10243 
134 2 0.434724 7.90454 8.07247 
69 2 11.02 12.008 10.1287 
27 1 8.21105 8.86692 11.1181 
130 2 9.54385 8.25399 10.4099 
26 1 11.2045 0.131801 11.2439 
114 2 12.831 10.2536 10.8517 
45 1 12.1275 10.9654 9.56569 
60 2 9.85662 0.996852 11.4634 
59 1 8.57059 0.711859 12.3951 
38 1 8.31932 10.8206 0.592 
100 2 8.41913 9.59065 12.5719 
3 2 11.6807 12.4595 12.6167 
107 2 8.51208 12.1602 12.727 
73 1 12.821 12.0784 0.6925 
1 2 0.530006 8.24293 12.4082 
31 2 0.294889 0.508108 1.18827 
10 2 0.816813 10.9991 0.0561052 
71 1 0.858047 9.79933 11.9885 
