ITEM: TIMESTEP
0
ITEM: NUMBER OF ATOMS
150
ITEM: BOX BOUNDS pp pp pp
1.5488430986360028e-03 1.3126688521904624e+01
1.5488430986360028e-03 1.3126688521904624e+01
1.5488430986360028e-03 1.3126688521904624e+01
ITEM: ATOMS id type x y z 
70 2 1.37308 3.96788 0.637992 
128 2 3.23359 5.88137 0.311109 
40 1 3.7683 0.729657 1.58558 
32 1 1.21435 2.56061 1.42087 
50 1 1.67668 5.46614 0.113536 
101 2 3.73582 0.0847727 0.0779669 
95 2 0.342767 1.42078 0.634444 
62 2 2.68664 1.91806 1.71489 
124 2 5.32983 1.18491 1.73855 
55 1 6.73558 0.461876 2.18846 
54 1 5.74265 6.35038 4.05739 
21 2 4.36564 6.23881 3.21847 
14 2 0.376604 2.88243 2.76808 
68 2 2.18106 5.70319 4.70249 
72 2 1.84684 4.88248 7.12829 
94 1 1.27734 0.823833 6.24346 
36 2 2.91529 0.993245 6.2835 
146 2 5.45925 5.60964 5.48075 
19 1 1.02419 5.22105 5.74612 
20 1 4.44491 0.465457 6.55406 
113 2 5.59874 1.55326 6.96523 
79 2 0.229905 1.519 7.32102 
42 2 0.735486 1.34251 4.79785 
127 2 2.81808 3.73315 9.43369 
33 1 2.04446 5.00009 8.72985 
116 2 5.18667 2.35953 9.36522 
112 2 0.52186 5.30549 9.27985 
131 2 6.12366 4.03433 7.64665 
56 2 2.92236 6.31087 9.16654 
52 1 6.27639 2.4714 8.15086 
139 2 3.69672 1.99484 11.3976 
117 2 4.92387 4.35318 10.9683 
77 1 4.39119 0.567546 11.7938 
110 2 1.36965 5.41047 11.6413 
16 1 6.24854 5.23836 11.3037 
9 2 5.9984 0.835729 12.0531 
149 2 6.70194 6.20293 10.0823 
140 2 5.83074 6.14031 12.5969 
34 1 4.06928 3.13814 10.2941 
83 1 5.39488 9.54369 0.960113 
65 1 4.40658 6.86355 12.9096 
104 2 4.70244 8.08302 0.804317 
138 2 4.19692 10.5245 1.47319 
148 2 0.708665 6.63218 0.72996 
142 2 6.04162 9.88705 12.6284 
96 1 2.98805 6.81204 3.85826 
78 1 3.32273 11.0651 2.72464 
118 2 4.32677 10.5392 4.03732 
125 2 6.2135 12.2843 3.01945 
115 2 2.01094 7.46068 2.75511 
87 2 1.7698 10.6242 2.8389 
121 2 6.51184 9.47175 2.1751 
61 2 6.12128 7.92681 4.21703 
39 2 3.44296 12.6851 2.6912 
92 1 0.168092 10.2523 3.12422 
102 2 0.108475 10.2835 4.76783 
58 1 5.69455 11.5377 4.35028 
89 1 0.456858 7.27032 2.2219 
137 2 6.82613 10.4131 4.6355 
132 2 3.43128 8.07436 4.82007 
90 2 2.51099 10.361 5.74987 
80 1 3.84068 9.53922 5.34945 
67 1 0.97172 10.7493 6.07624 
41 2 4.79904 9.53843 6.65138 
12 2 0.947492 12.3486 6.32993 
44 2 5.0854 12.6144 5.39268 
24 2 0.512031 9.92844 7.38466 
120 2 5.52702 10.6582 8.98441 
75 1 5.11619 9.27288 8.23569 
28 2 3.82106 8.73784 9.06932 
48 1 5.15572 12.2212 9.21101 
49 2 6.62023 12.957 9.29456 
97 1 3.06648 7.67795 10.0488 
136 2 6.32642 8.21606 8.43967 
133 2 4.32169 12.6575 7.89258 
37 2 3.90967 7.41714 11.4305 
108 2 4.35299 12.625 10.5638 
15 2 1.56473 8.16379 10.4529 
25 1 12.1551 0.681608 0.0162884 
109 2 8.03248 4.58627 1.21161 
11 1 7.5589 0.820065 12.5659 
99 2 7.51651 13.0858 0.839972 
135 2 11.1318 0.16485 1.20491 
74 2 8.08252 2.25026 13.0979 
63 1 8.42472 3.82934 12.9709 
126 2 9.49374 6.22974 2.72889 
51 2 7.43025 1.49617 3.23508 
88 2 8.82661 3.70251 3.54809 
84 1 8.01605 2.5374 4.35674 
17 1 8.40584 5.03999 2.72041 
122 2 7.03758 5.62484 3.40951 
5 2 10.3947 13.0153 3.7614 
93 1 13.001 2.65411 4.27615 
81 2 11.4466 2.20196 4.41814 
43 2 11.2033 0.448688 6.29555 
4 2 6.99503 3.40747 5.29421 
103 2 7.84234 5.66291 6.48391 
129 2 9.01373 1.63813 5.27416 
22 1 10.4731 0.997994 4.94802 
7 1 6.55799 4.68917 6.23181 
144 2 0.275793 3.86187 5.27079 
2 1 9.11283 5.93099 7.48961 
76 2 7.87997 2.33264 8.51706 
13 1 9.38391 2.97838 8.77493 
23 2 9.25006 4.54055 8.33124 
106 2 10.6453 2.33156 7.938 
86 1 11.7811 1.18825 7.64939 
6 2 11.6643 0.121993 8.87287 
30 2 7.52235 4.32871 11.7142 
111 2 12.1211 4.20312 11.1438 
57 1 10.9133 3.20154 11.575 
98 2 11.4367 1.78262 12.1772 
123 2 8.41615 0.394755 11.2522 
35 2 9.89382 2.93059 10.3244 
85 1 13.0886 5.4531 10.8009 
119 2 10.0145 3.9702 12.6974 
145 2 10.9594 10.524 13.1154 
141 2 8.54146 9.67439 13.0315 
18 1 9.78306 9.91653 0.934202 
147 2 10.2448 8.5842 1.74368 
53 2 9.62295 11.1304 2.03485 
105 2 8.60085 8.51876 3.64502 
150 2 12.1962 11.3562 2.61792 
82 1 9.97046 7.7354 3.12019 
47 1 7.10778 9.114 3.67783 
66 2 10.9749 7.65482 4.39365 
8 1 10.8011 12.2153 2.40367 
46 2 13.0098 8.79371 2.45396 
143 2 12.877 6.13725 3.10106 
91 1 11.5555 7.10428 5.82158 
29 2 11.5977 8.41818 6.79439 
64 2 10.4144 6.17278 6.55288 
134 2 13.0315 6.40213 5.95419 
69 2 11.2535 10.7884 7.99994 
27 1 7.40562 7.53818 9.45729 
130 2 8.70613 7.09932 8.56876 
26 1 10.7901 11.8932 9.08777 
114 2 12.3395 8.78202 9.34164 
45 1 12.1633 9.4477 7.88161 
60 2 9.21032 12.2609 9.01358 
59 1 7.99333 12.5021 10.0451 
38 1 7.45999 9.79507 11.8042 
100 2 7.59465 8.56486 10.7294 
3 2 11.0826 11.2656 10.5661 
107 2 7.66382 11.1546 10.9261 
73 1 11.9533 10.9911 11.9251 
1 2 12.4861 6.93342 11.1264 
31 2 12.5717 12.4372 12.3481 
10 2 12.9247 9.70902 11.6808 
71 1 13.0985 8.39864 10.7324 
