ITEM: TIMESTEP
0
ITEM: NUMBER OF ATOMS
150
ITEM: BOX BOUNDS pp pp pp
-2.6596314649091823e-03 1.3044700551203348e+01
-2.6596314649091823e-03 1.3044700551203348e+01
-2.6596314649091823e-03 1.3044700551203348e+01
ITEM: ATOMS id type x y z 
70 2 1.69291 3.25037 1.87442 
128 2 3.77082 4.88535 1.42458 
40 1 4.00138 13.0123 2.86588 
32 1 1.5163 1.72732 2.37695 
50 1 2.20283 4.5959 1.13993 
101 2 3.87274 12.2894 1.39392 
95 2 0.999284 0.614163 1.30376 
62 2 2.95909 1.18799 2.93029 
124 2 5.56963 0.357847 3.08793 
55 1 6.96746 12.7731 3.66237 
54 1 6.20549 5.06042 5.02468 
21 2 4.76534 5.097 4.28283 
14 2 0.436598 1.71212 3.58473 
68 2 2.89932 5.17337 6.1792 
72 2 2.29432 3.53441 8.08563 
94 1 2.12341 12.9978 7.02402 
36 2 3.7098 0.197869 7.30454 
146 2 6.0606 4.37991 6.50487 
19 1 1.66056 4.33113 6.80836 
20 1 5.11847 12.6731 7.87884 
113 2 6.30542 0.710549 8.10333 
79 2 1.00904 0.324888 8.18632 
42 2 1.61865 0.743142 5.70309 
127 2 3.63652 2.38861 10.2612 
33 1 2.61598 3.53201 9.67959 
116 2 6.13874 1.34761 10.6181 
112 2 1.11093 3.55927 10.3487 
131 2 6.83142 3.14336 8.89408 
56 2 3.34786 4.92902 10.1443 
52 1 7.0498 1.55795 9.28301 
139 2 4.28825 0.877523 12.3869 
117 2 5.44536 3.35757 12.0115 
77 1 4.67024 12.4694 13.0376 
110 2 1.96339 4.26531 12.6099 
16 1 6.71882 4.35423 12.256 
9 2 6.2496 12.5959 0.42745 
149 2 6.9416 5.38601 11.0201 
140 2 6.36499 5.19998 0.568704 
34 1 4.81071 2.00704 11.3336 
83 1 5.89815 8.53867 2.1801 
65 1 4.91555 5.88374 0.864988 
104 2 5.09124 7.15887 1.85489 
138 2 4.84168 9.63592 2.78062 
148 2 1.32346 5.9371 1.45719 
142 2 6.62962 8.93194 0.774956 
96 1 3.41952 5.84531 4.79583 
78 1 3.85021 10.2045 3.92998 
118 2 4.63052 9.78208 5.38107 
125 2 6.55698 11.4115 4.46754 
115 2 2.12252 5.88905 3.8398 
87 2 2.36318 9.59625 3.91023 
121 2 7.00022 8.29115 3.37802 
61 2 6.74734 6.59045 5.267 
39 2 3.7364 11.8167 3.94745 
92 1 0.749661 9.29464 4.06044 
102 2 0.546251 9.38994 5.68636 
58 1 6.13849 10.5024 5.7394 
89 1 0.759184 6.27486 2.9744 
137 2 7.14171 9.23837 5.7924 
132 2 3.92176 7.34306 5.24659 
90 2 2.70519 8.89512 7.01061 
80 1 4.1248 8.48821 6.36527 
67 1 1.40219 9.88081 6.98353 
41 2 5.18223 8.31386 7.57637 
12 2 1.96978 11.3881 6.74062 
44 2 5.75121 11.4456 6.98941 
24 2 0.634428 9.80669 8.40261 
120 2 5.62705 9.62927 9.88082 
75 1 5.65743 8.16799 9.13947 
28 2 4.58637 7.22081 9.91256 
48 1 5.50946 11.1373 10.4844 
49 2 7.03183 11.7238 10.7092 
97 1 3.6693 6.33422 10.9163 
136 2 7.11727 7.49639 9.41668 
133 2 4.78299 12.0383 9.34203 
37 2 4.38922 6.26045 12.3896 
108 2 4.6819 11.3221 11.879 
15 2 2.21444 7.03631 11.1311 
25 1 12.8819 12.6492 0.781776 
109 2 8.84864 3.82971 2.09694 
11 1 7.73767 0.0195971 0.899011 
99 2 7.93775 12.4383 2.39291 
135 2 11.7917 12.3195 1.97237 
74 2 7.82307 1.62122 1.11316 
63 1 8.81736 2.87982 0.792147 
126 2 9.7471 5.30461 4.13484 
51 2 7.59628 0.752921 4.73894 
88 2 9.3864 2.61691 4.45537 
84 1 8.67376 1.6451 5.56584 
17 1 8.91387 3.99329 3.7052 
122 2 7.37436 4.25058 4.24302 
5 2 11.2275 12.2431 4.59628 
93 1 0.522725 1.85368 5.18549 
81 2 12.1695 1.37533 5.84698 
43 2 11.9154 12.2651 7.18956 
4 2 8.0127 2.63133 6.67533 
103 2 8.30993 5.01959 7.74256 
129 2 9.71575 0.604472 6.25167 
22 1 11.2142 0.0545252 5.9732 
7 1 7.23076 3.83145 7.47782 
144 2 1.0646 3.26925 5.73395 
2 1 9.67713 5.07504 8.65128 
76 2 8.65198 1.2984 9.40792 
13 1 10.1623 1.95556 9.48749 
23 2 9.96299 3.51404 9.04255 
106 2 11.4028 1.22685 8.69868 
86 1 12.4869 0.00351624 8.52854 
6 2 12.2786 12.0584 9.79505 
30 2 8.12613 3.57693 12.5307 
111 2 12.5549 3.10858 12.4124 
57 1 11.4265 1.91853 12.4536 
98 2 12.1044 0.45123 12.6745 
123 2 8.69167 12.6582 12.6958 
35 2 10.6352 1.92969 11.0384 
85 1 0.558146 4.16184 11.762 
119 2 10.2993 2.27098 0.524479 
145 2 11.6771 9.33405 1.09865 
141 2 9.16249 8.57855 1.12762 
18 1 10.4476 8.89336 2.07036 
147 2 10.7661 7.61282 3.00229 
53 2 10.2976 10.2463 3.00074 
105 2 9.17441 7.64461 4.97087 
150 2 12.8568 10.4815 3.46817 
82 1 10.4582 6.75039 4.34954 
47 1 7.58817 7.94349 4.89236 
66 2 11.6292 6.65983 5.46352 
8 1 11.4765 11.3592 3.25732 
46 2 0.529079 7.85548 3.34556 
143 2 12.5849 5.297 3.26305 
91 1 12.1464 6.29731 6.95472 
29 2 12.367 7.72638 7.68959 
64 2 10.9344 5.58665 7.78306 
134 2 0.449918 5.39162 7.10079 
69 2 11.2078 9.70577 9.23585 
27 1 7.90516 6.63005 10.5594 
130 2 9.27758 5.99845 9.94144 
26 1 11.2284 10.9302 10.3179 
114 2 12.9396 7.93254 10.191 
45 1 12.4986 8.7874 8.88657 
60 2 9.76765 11.6045 10.4998 
59 1 8.47454 11.6016 11.4683 
38 1 8.04444 8.76273 13.0071 
100 2 8.06042 7.55879 11.903 
3 2 11.7448 10.2441 11.703 
107 2 8.36423 10.1411 12.2048 
73 1 12.6961 9.77384 12.96 
1 2 0.0574478 5.71965 11.6655 
31 2 0.388442 11.1764 0.328065 
10 2 0.49788 8.43368 12.598 
71 1 0.636187 7.24992 11.4751 
