ITEM: TIMESTEP
0
ITEM: NUMBER OF ATOMS
150
ITEM: BOX BOUNDS pp pp pp
-1.6375287549433659e-03 1.2998759533445682e+01
-1.6375287549433659e-03 1.2998759533445682e+01
-1.6375287549433659e-03 1.2998759533445682e+01
ITEM: ATOMS id type x y z 
70 2 2.44483 4.80035 1.8976 
128 2 4.23613 6.644 1.04074 
40 1 4.36775 1.53069 3.08457 
32 1 1.93818 3.45716 2.64433 
50 1 2.70907 6.08023 0.947577 
101 2 4.36245 0.875042 1.58134 
95 2 1.13519 2.36387 1.72225 
62 2 3.25729 2.66999 3.17748 
124 2 5.87344 2.0777 3.32494 
55 1 7.24374 1.4801 3.97349 
54 1 6.79582 6.78424 4.95586 
21 2 5.37266 6.71256 4.16118 
14 2 1.09002 3.89333 3.95861 
68 2 3.13895 6.23592 5.6155 
72 2 3.47537 5.59613 8.12065 
94 1 2.32969 1.29912 7.07855 
36 2 3.87164 1.47002 7.56782 
146 2 6.60737 6.01366 6.38937 
19 1 2.33645 5.79763 6.96294 
20 1 5.34174 0.994396 8.08052 
113 2 6.47301 2.16566 8.03598 
79 2 1.19809 1.84196 8.13854 
42 2 1.92458 2.05204 5.68882 
127 2 4.20509 4.02811 10.31 
33 1 3.44101 5.3474 9.7294 
116 2 6.53398 2.78276 10.5774 
112 2 1.81867 5.47814 9.98558 
131 2 7.02298 4.63772 8.79859 
56 2 4.12125 6.5564 10.5956 
52 1 7.26366 3.04998 9.1469 
139 2 4.74438 2.52672 12.4918 
117 2 6.17293 4.82358 12.0325 
77 1 5.21354 1.13383 0.217835 
110 2 2.21323 5.63714 12.4685 
16 1 7.39386 5.89423 12.2484 
9 2 6.76655 1.44331 0.667497 
149 2 7.60804 6.82895 10.9213 
140 2 6.91704 6.7626 0.556891 
34 1 5.3454 3.56687 11.3905 
83 1 6.68572 10.1329 2.24309 
65 1 5.55269 7.60377 0.868956 
104 2 5.83146 8.7455 2.00292 
138 2 5.63573 11.2745 2.79428 
148 2 1.68871 7.28962 1.36858 
142 2 7.41041 10.398 0.807128 
96 1 3.94504 7.2906 4.68994 
78 1 4.46577 11.7028 3.83592 
118 2 5.06109 11.1045 5.32089 
125 2 6.8746 0.0994064 4.75781 
115 2 2.88504 7.80602 3.5746 
87 2 3.00131 11.2166 3.38543 
121 2 7.80388 9.98288 3.43316 
61 2 7.17648 8.34307 5.26964 
39 2 4.22953 0.283818 4.12713 
92 1 1.38308 10.9805 3.57788 
102 2 1.29694 10.73 5.19344 
58 1 6.46677 11.9815 5.86105 
89 1 1.44648 8.00359 2.80368 
137 2 7.6457 10.8901 5.87329 
132 2 4.35871 8.56788 5.64392 
90 2 3.12046 10.3768 7.03029 
80 1 4.58091 9.92765 6.48411 
67 1 1.68834 11.1296 6.72148 
41 2 5.72442 9.98497 7.63398 
12 2 2.06407 12.7102 6.83457 
44 2 5.87641 12.7693 7.13681 
24 2 0.49648 10.7779 7.73731 
120 2 6.14108 11.0543 10.126 
75 1 6.31795 9.74399 9.15097 
28 2 5.26161 8.66924 9.75242 
48 1 6.05405 12.5479 10.7876 
49 2 7.6079 12.9791 11.1056 
97 1 4.44313 8.09544 11.0094 
136 2 7.79198 9.09357 9.42807 
133 2 5.33552 0.432629 9.61116 
37 2 5.2712 8.28876 12.3947 
108 2 5.25508 12.8734 12.1806 
15 2 3.01298 8.83364 11.2068 
25 1 0.247673 1.3144 0.822206 
109 2 9.66024 5.50481 2.15991 
11 1 8.30814 1.65368 1.20025 
99 2 8.28945 1.17393 2.76171 
135 2 11.9611 0.84571 1.74436 
74 2 8.77789 3.20421 1.20285 
63 1 9.6442 4.54509 0.85553 
126 2 10.7149 6.76368 4.26382 
51 2 7.78665 2.62155 4.96611 
88 2 9.82497 4.24096 4.50378 
84 1 9.07653 3.33337 5.63263 
17 1 9.60654 5.69415 3.77221 
122 2 8.08398 6.14391 4.19636 
5 2 11.5417 0.788014 4.39653 
93 1 0.981606 3.38593 5.48896 
81 2 12.4691 2.87862 5.76234 
43 2 12.1208 0.698186 7.04371 
4 2 8.56849 4.32464 6.801 
103 2 8.68234 6.5958 7.95168 
129 2 10.0152 2.11592 6.13574 
22 1 11.4978 1.56294 5.8136 
7 1 7.61677 5.45337 7.52203 
144 2 1.53319 4.43326 6.59086 
2 1 10.1551 6.4241 8.66398 
76 2 8.84631 2.71262 9.23817 
13 1 10.3369 3.29779 9.53855 
23 2 10.2061 4.90683 9.27248 
106 2 11.5647 2.58861 8.72418 
86 1 12.6538 1.40771 8.42772 
6 2 12.6159 0.306469 9.60694 
30 2 8.83594 5.22438 12.6064 
111 2 12.8393 4.82852 11.6009 
57 1 11.948 3.56621 12.1511 
98 2 12.7832 2.21083 12.5346 
123 2 9.20068 0.843954 0.110502 
35 2 10.7742 3.15851 11.1006 
85 1 1.03419 5.90933 11.3514 
119 2 11.1646 4.11925 0.469311 
145 2 12.1905 10.778 1.13965 
141 2 9.85758 9.64723 1.2553 
18 1 11.0314 10.2685 2.1929 
147 2 11.5229 9.19634 3.2971 
53 2 10.6951 11.7175 2.89423 
105 2 9.70156 9.20329 5.32684 
150 2 0.295339 12.1617 3.26584 
82 1 11.8236 7.95735 4.32547 
47 1 8.20469 9.60761 5.00661 
66 2 12.3835 8.1967 5.83882 
8 1 11.8095 12.898 3.07098 
46 2 1.16612 9.60033 2.75757 
143 2 0.218272 7.32244 3.61325 
91 1 12.6191 7.47478 7.2699 
29 2 12.4324 8.53595 8.48514 
64 2 11.3801 6.45675 7.58843 
134 2 1.15275 6.88701 7.29555 
69 2 11.4644 10.9412 9.49482 
27 1 8.57054 8.09765 10.4756 
130 2 9.97835 7.49892 9.89422 
26 1 11.6145 12.2977 10.3898 
114 2 0.796872 9.89849 10.1628 
45 1 12.7113 10.0489 8.95465 
60 2 10.2526 0.127218 10.6825 
59 1 9.09092 12.9056 11.7876 
38 1 8.82391 10.0177 0.0586611 
100 2 8.72383 8.8874 11.9034 
3 2 12.3115 11.855 11.7858 
107 2 9.32041 11.3777 12.321 
73 1 0.238901 11.3933 0.0517692 
1 2 0.783969 7.53826 11.4115 
31 2 0.914243 12.8354 0.4995 
10 2 1.185 10.127 12.6469 
71 1 1.4206 9.07155 11.4201 
