ITEM: TIMESTEP
0
ITEM: NUMBER OF ATOMS
150
ITEM: BOX BOUNDS pp pp pp
-1.6368655362274296e-03 1.3037858248235640e+01
-1.6368655362274296e-03 1.3037858248235640e+01
-1.6368655362274296e-03 1.3037858248235640e+01
ITEM: ATOMS id type x y z 
70 2 2.01773 5.32914 1.99942 
128 2 3.95669 7.07808 1.41531 
40 1 4.11459 2.08336 3.04887 
32 1 1.67506 3.92073 2.7101 
50 1 2.39711 6.68691 1.21662 
101 2 3.9669 1.48789 1.52398 
95 2 1.02279 2.73317 1.78944 
62 2 3.07757 3.28876 3.26215 
124 2 5.67946 2.5003 3.24562 
55 1 7.06823 1.87017 3.82724 
54 1 6.45029 7.27589 5.16542 
21 2 5.02419 7.29952 4.40547 
14 2 0.618471 4.20693 3.89718 
68 2 2.77816 6.91164 5.83731 
72 2 2.46377 5.90895 8.19697 
94 1 2.23666 2.18462 7.15575 
36 2 3.83943 2.25789 7.45492 
146 2 6.29773 6.61967 6.65381 
19 1 1.63964 6.55944 6.94185 
20 1 5.28133 1.68485 7.95215 
113 2 6.4766 2.77901 8.13989 
79 2 1.1456 2.53331 8.34862 
42 2 1.77722 3.1692 5.95437 
127 2 3.78145 4.54241 10.3167 
33 1 2.77352 5.72082 9.78125 
116 2 6.2448 3.42769 10.6306 
112 2 1.25724 5.69546 10.4249 
131 2 6.93933 5.26237 8.96665 
56 2 3.51334 7.0887 10.3063 
52 1 7.17866 3.67148 9.3144 
139 2 4.46253 3.1116 12.4993 
117 2 5.69847 5.50917 11.9881 
77 1 4.79823 1.65661 0.13534 
110 2 2.10148 6.34582 12.6953 
16 1 6.96661 6.50139 12.2712 
9 2 6.36942 1.7343 0.606126 
149 2 7.27238 7.51421 11.0353 
140 2 6.53914 7.35321 0.563868 
34 1 4.97765 4.1734 11.3728 
83 1 6.13417 10.7399 2.17901 
65 1 5.10933 8.07533 0.871969 
104 2 5.36236 9.33926 1.86006 
138 2 5.02565 11.7986 2.7554 
148 2 1.42534 7.96075 1.56503 
142 2 6.90678 11.142 0.800875 
96 1 3.61925 7.93265 4.9105 
78 1 4.0692 12.2517 3.98101 
118 2 4.89644 11.7264 5.37569 
125 2 6.68619 0.445302 4.51683 
115 2 2.62015 8.41848 3.74589 
87 2 2.60059 11.5966 4.01624 
121 2 7.21243 10.5373 3.40682 
61 2 6.95271 8.82366 5.32721 
39 2 3.89502 0.818894 4.06726 
92 1 0.982223 11.3564 4.20923 
102 2 0.833998 11.3839 5.84282 
58 1 6.33708 12.5542 5.79328 
89 1 1.09381 8.45034 3.09891 
137 2 7.45292 11.3922 5.85702 
132 2 4.04215 9.24798 5.8168 
90 2 3.03905 11.3217 7.18068 
80 1 4.36543 10.6323 6.57158 
67 1 1.59609 12.0893 7.10486 
41 2 5.50117 10.6076 7.72285 
12 2 1.921 0.613851 6.77559 
44 2 5.85579 0.484709 6.98968 
24 2 0.787632 11.927 8.49609 
120 2 5.83966 11.7129 10.1811 
75 1 5.91256 10.3475 9.28529 
28 2 4.78193 9.34773 9.89278 
48 1 5.71174 0.222145 10.671 
49 2 7.24477 0.769989 10.9218 
97 1 3.84125 8.54876 10.946 
136 2 7.37671 9.67622 9.50509 
133 2 5.03919 1.01353 9.41792 
37 2 4.57959 8.50667 12.4072 
108 2 4.82599 0.5105 12.0117 
15 2 2.39188 9.26139 11.1443 
25 1 12.9764 1.7036 1.14451 
109 2 9.04734 5.96592 2.25166 
11 1 7.84774 2.21713 1.08348 
99 2 8.07878 1.61174 2.57718 
135 2 11.8272 1.27134 2.24823 
74 2 7.93006 3.82544 1.23389 
63 1 8.98641 5.03704 0.927998 
126 2 10.1103 7.24068 4.34696 
51 2 7.64569 2.85288 4.96821 
88 2 9.49395 4.61352 4.57093 
84 1 8.79359 3.70351 5.74418 
17 1 9.13185 6.04732 3.8696 
122 2 7.63198 6.4507 4.41849 
5 2 11.2148 1.01685 4.88704 
93 1 0.494393 4.1077 5.4959 
81 2 12.2178 3.24318 5.87391 
43 2 12.0037 1.28995 7.47831 
4 2 8.20362 4.77397 6.81603 
103 2 8.58362 7.11151 7.9242 
129 2 9.7748 2.6139 6.4502 
22 1 11.2484 1.97362 6.19836 
7 1 7.44451 5.99589 7.61042 
144 2 0.597356 5.45334 6.37727 
2 1 9.97827 7.19135 8.79615 
76 2 8.78491 3.47172 9.49812 
13 1 10.3066 4.07253 9.68609 
23 2 10.1951 5.67054 9.35098 
106 2 11.5291 3.3921 8.832 
86 1 12.6345 2.18606 8.72037 
6 2 12.5138 1.28853 10.0645 
30 2 8.36379 5.73604 12.6283 
111 2 12.6822 5.24233 12.4779 
57 1 11.5979 4.01386 12.6285 
98 2 12.2792 2.57585 12.9911 
123 2 8.82446 1.75216 12.9173 
35 2 10.7782 3.90552 11.2295 
85 1 0.702224 6.30219 11.8372 
119 2 10.4654 4.40731 0.692993 
145 2 11.9143 11.3404 1.24477 
141 2 9.40799 10.5874 1.21576 
18 1 10.6974 10.8021 2.17884 
147 2 11.0122 9.42351 2.96836 
53 2 10.5253 12.0828 3.20057 
105 2 9.37836 9.68208 4.86154 
150 2 0.0247129 12.5703 3.70097 
82 1 10.6964 8.7528 4.42044 
47 1 7.83124 10.131 4.88631 
66 2 11.8051 8.88445 5.58424 
8 1 11.592 0.249979 3.50709 
46 2 0.648705 9.99259 3.40442 
143 2 0.192258 7.33859 3.79861 
91 1 12.3115 8.56375 7.08754 
29 2 12.2121 9.99063 7.85722 
64 2 11.2304 7.6037 7.85886 
134 2 0.771859 7.91961 7.25026 
69 2 11.3845 12.0035 9.4888 
27 1 8.20062 8.79842 10.6087 
130 2 9.60885 8.2384 10.003 
26 1 11.4428 0.177173 10.5755 
114 2 0.0174801 10.088 10.284 
45 1 12.581 11.0123 9.03642 
60 2 9.99163 0.883927 10.6996 
59 1 8.7025 0.7246 11.6587 
38 1 8.33782 10.8971 0.034452 
100 2 8.28978 9.70653 11.9664 
3 2 11.9785 12.5047 11.9371 
107 2 8.77261 12.2647 12.3125 
73 1 12.9212 11.929 0.115511 
1 2 0.269894 7.88683 11.7522 
31 2 0.579265 0.264885 0.676246 
10 2 0.7321 10.6281 12.6646 
71 1 0.818907 9.43144 11.5443 
