ITEM: TIMESTEP
0
ITEM: NUMBER OF ATOMS
150
ITEM: BOX BOUNDS pp pp pp
-3.7164400871439133e-03 1.2950416277203518e+01
-3.7164400871439133e-03 1.2950416277203518e+01
-3.7164400871439133e-03 1.2950416277203518e+01
ITEM: ATOMS id type x y z 
70 2 2.46103 4.77322 1.59957 
128 2 4.39365 6.42717 0.628979 
40 1 4.3673 1.48705 2.78045 
32 1 1.88991 3.42411 2.30431 
50 1 2.83934 5.93756 0.53725 
101 2 4.42743 0.903742 1.2486 
95 2 1.05678 2.39988 1.32622 
62 2 3.16758 2.54309 2.81409 
124 2 5.84104 2.10341 3.10114 
55 1 7.25696 1.54024 3.67661 
54 1 6.97388 6.72099 4.6612 
21 2 5.56997 6.59868 3.84386 
14 2 1.06443 3.82709 3.64418 
68 2 3.24239 6.16031 5.22559 
72 2 3.56611 5.59029 7.71904 
94 1 2.53373 1.3523 6.78569 
36 2 4.10331 1.42936 7.19586 
146 2 6.72114 6.06916 6.14055 
19 1 2.40508 5.85089 6.59215 
20 1 5.59761 0.985345 7.65661 
113 2 6.61973 2.24808 7.6749 
79 2 1.44977 1.83546 7.9258 
42 2 2.11229 2.238 5.48902 
127 2 4.41966 4.07541 9.91757 
33 1 3.54546 5.31202 9.32173 
116 2 6.71219 2.80169 10.2379 
112 2 1.91714 5.27397 9.54845 
131 2 7.17406 4.7128 8.49055 
56 2 4.04538 6.58242 10.2271 
52 1 7.40238 3.1159 8.79836 
139 2 4.88418 2.63103 12.1365 
117 2 6.38599 4.91488 11.6058 
77 1 5.26396 1.1963 12.84 
110 2 2.29775 5.36392 12.0711 
16 1 7.54675 6.0609 11.7874 
9 2 6.81783 1.42951 0.368095 
149 2 7.8465 6.87145 10.4008 
140 2 6.94356 7.034 0.00148772 
34 1 5.53947 3.63533 11.0295 
83 1 6.66332 10.0635 1.82811 
65 1 5.49238 7.62976 0.453029 
104 2 5.75855 8.70075 1.65674 
138 2 5.63708 11.2312 2.35696 
148 2 1.9839 7.31548 0.832311 
142 2 7.40859 10.2578 0.390843 
96 1 4.12288 7.1767 4.31712 
78 1 4.62848 11.5842 3.57396 
118 2 5.3976 10.9932 4.96463 
125 2 7.03748 0.0298092 4.26931 
115 2 3.12315 7.61571 3.11813 
87 2 3.17543 10.9103 3.43898 
121 2 7.78585 9.95778 3.01375 
61 2 7.37241 8.28827 4.86921 
39 2 4.29703 0.202085 3.7892 
92 1 1.54433 10.7212 3.53654 
102 2 1.32495 10.5763 5.15306 
58 1 6.78659 11.8991 5.45691 
89 1 1.69048 7.83003 2.34842 
137 2 7.97405 10.8149 5.45968 
132 2 4.5038 8.48091 5.27023 
90 2 3.43444 10.4315 6.66396 
80 1 4.83861 9.83321 6.10018 
67 1 1.96034 11.1473 6.54314 
41 2 5.94878 9.88519 7.28867 
12 2 2.25108 12.7422 6.42105 
44 2 6.22323 12.7473 6.71594 
24 2 0.972698 10.9358 7.79851 
120 2 6.19397 10.986 9.84039 
75 1 6.43864 9.69679 8.84835 
28 2 5.3894 8.60056 9.43405 
48 1 6.11315 12.5043 10.448 
49 2 7.64148 12.9194 10.8649 
97 1 4.32252 8.15403 10.5587 
136 2 7.95838 9.1657 9.0904 
133 2 5.55496 0.406552 9.17661 
37 2 4.94403 8.38293 12.0484 
108 2 5.23136 12.9269 11.7601 
15 2 2.86348 8.86503 10.4944 
25 1 0.173386 1.22221 0.588437 
109 2 9.6933 5.31445 1.92664 
11 1 8.35201 1.74631 0.849488 
99 2 8.33822 1.49855 2.46124 
135 2 12.0383 0.672723 1.69793 
74 2 8.80049 3.27277 0.568734 
63 1 9.72253 4.61672 0.47419 
126 2 10.9786 6.35888 3.92866 
51 2 7.76 2.50268 4.86568 
88 2 9.87181 3.92844 4.22248 
84 1 9.11362 3.16865 5.45663 
17 1 9.73133 5.4101 3.54223 
122 2 8.2667 5.96974 4.02416 
5 2 11.683 0.530437 4.3343 
93 1 1.00629 3.42375 5.20927 
81 2 12.5053 2.76665 5.50213 
43 2 12.2439 0.716687 6.96467 
4 2 8.69987 4.33714 6.49776 
103 2 8.88657 6.66607 7.5303 
129 2 10.0604 1.96297 5.98516 
22 1 11.5628 1.43527 5.66991 
7 1 7.79064 5.51074 7.21473 
144 2 1.43056 4.58748 6.25721 
2 1 10.3758 6.53646 8.21713 
76 2 8.99509 2.81479 8.80347 
13 1 10.4539 3.43461 9.17515 
23 2 10.3842 5.03955 8.88286 
106 2 11.7764 2.75924 8.48727 
86 1 12.8389 1.53197 8.26568 
6 2 12.7155 0.529368 9.52549 
30 2 8.99696 5.51388 12.2844 
111 2 12.908 4.54333 11.1163 
57 1 11.895 3.45497 11.7947 
98 2 12.4863 2.00969 12.2588 
123 2 9.27255 0.803078 12.8576 
35 2 10.6472 3.23723 10.7788 
85 1 1.14138 5.64032 10.9316 
119 2 11.2552 4.20327 0.136041 
145 2 12.2783 10.6607 0.84941 
141 2 9.86748 9.66166 0.988201 
18 1 11.1632 10.0303 1.89326 
147 2 11.6705 8.65433 2.571 
53 2 10.9904 11.3539 2.85219 
105 2 9.89531 9.04829 4.5686 
150 2 0.582177 11.969 3.10208 
82 1 12.0823 7.51417 3.65546 
47 1 8.39081 9.53603 4.50366 
66 2 12.6854 7.98088 5.09007 
8 1 12.0121 12.6228 2.99664 
46 2 1.30704 9.38381 2.64696 
143 2 0.506215 6.89095 2.95093 
91 1 12.7687 7.61127 6.65937 
29 2 12.3697 8.92525 7.52216 
64 2 11.6155 6.56306 7.16607 
134 2 1.35329 7.07335 6.93984 
69 2 11.5149 11.1989 8.94688 
27 1 8.81896 8.15797 10.0492 
130 2 10.2369 7.65892 9.4079 
26 1 11.6459 12.384 10.0607 
114 2 0.332253 9.49503 9.86564 
45 1 12.6789 10.1537 8.51141 
60 2 10.2575 0.205867 10.3695 
59 1 9.13906 12.8717 11.502 
38 1 8.88983 9.96559 12.6931 
100 2 8.95637 8.8472 11.5235 
3 2 12.2591 11.7149 11.4078 
107 2 9.37895 11.3365 11.9804 
73 1 0.287192 11.2822 12.6452 
1 2 0.881425 7.2615 11.0622 
31 2 0.897705 12.7528 0.150331 
10 2 1.21652 10.0063 12.1957 
71 1 1.30469 8.86874 11.0047 
