ITEM: TIMESTEP
0
ITEM: NUMBER OF ATOMS
150
ITEM: BOX BOUNDS pp pp pp
1.5436982338579651e-03 1.3114024682478538e+01
1.5436982338579651e-03 1.3114024682478538e+01
1.5436982338579651e-03 1.3114024682478538e+01
ITEM: ATOMS id type x y z 
70 2 1.31094 4.51733 0.974692 
128 2 3.20292 6.27083 0.212535 
40 1 3.37096 1.16755 1.89884 
32 1 0.954414 3.08126 1.62475 
50 1 1.64046 5.84501 0.115748 
101 2 3.27044 0.616268 0.357603 
95 2 0.250364 1.94002 0.67878 
62 2 2.35124 2.38826 2.11194 
124 2 4.93102 1.59046 2.11731 
55 1 6.32861 0.908109 2.62224 
54 1 5.62345 6.6289 4.13244 
21 2 4.20991 6.70891 3.35702 
14 2 13.0709 3.3269 2.87326 
68 2 2.01881 6.10467 4.75592 
72 2 1.85456 5.2541 7.18232 
94 1 1.27444 1.25506 6.2536 
36 2 2.84351 1.35113 6.67493 
146 2 5.45157 5.85097 5.55524 
19 1 0.942974 5.69007 5.8976 
20 1 4.35079 0.807058 6.95397 
113 2 5.54542 1.88871 7.18823 
79 2 0.111177 1.72893 7.31685 
42 2 1.03057 2.12345 4.90784 
127 2 2.9799 3.85481 9.32536 
33 1 2.05032 5.08479 8.78239 
116 2 5.34682 2.59541 9.64779 
112 2 0.497305 5.1007 9.32938 
131 2 5.95478 4.38941 7.87351 
56 2 2.80387 6.39707 9.4126 
52 1 6.25722 2.82998 8.31353 
139 2 3.52673 2.39807 11.4923 
117 2 4.97071 4.69139 11.0221 
77 1 4.04379 0.967176 12.0861 
110 2 1.25817 5.42672 11.7026 
16 1 6.28986 5.61134 11.3334 
9 2 5.6136 1.23081 12.4901 
149 2 6.64926 6.59952 10.0951 
140 2 5.85952 6.48423 12.6482 
34 1 4.13977 3.4313 10.3908 
83 1 5.37569 9.83739 1.23966 
65 1 4.44328 7.23864 12.9313 
104 2 4.68757 8.39481 0.927702 
138 2 4.17188 10.8133 1.77785 
148 2 0.678705 7.11636 0.504715 
142 2 6.08252 10.2309 12.933 
96 1 2.7744 7.23416 3.88848 
78 1 3.16393 11.3835 2.91231 
118 2 3.98013 10.9509 4.3574 
125 2 5.86048 12.6592 3.37898 
115 2 1.74604 7.6789 2.73517 
87 2 1.65569 10.823 2.96261 
121 2 6.46117 9.73618 2.4795 
61 2 6.11097 8.15223 4.46716 
39 2 3.09609 13.0014 2.88099 
92 1 0.0450473 10.5028 3.18373 
102 2 13.074 10.4945 4.83001 
58 1 5.39621 11.8476 4.69331 
89 1 0.25483 7.63716 2.01044 
137 2 6.53357 10.728 4.91661 
132 2 3.13657 8.51807 4.86263 
90 2 2.15041 10.5608 6.21585 
80 1 3.49224 9.90036 5.61781 
67 1 0.654861 11.21 6.12949 
41 2 4.60752 9.92679 6.79478 
12 2 0.903425 12.805 5.91275 
44 2 4.86412 12.8906 5.79325 
24 2 12.9652 10.9339 7.50083 
120 2 5.18898 10.8881 9.3271 
75 1 5.00995 9.58761 8.34976 
28 2 3.74274 8.7732 8.96949 
48 1 4.99868 12.4727 9.65021 
49 2 6.50321 13.1086 9.80763 
97 1 3.06194 7.84458 10.1127 
136 2 6.36292 8.69683 8.50345 
133 2 4.26535 13.0574 8.32859 
37 2 4.02592 7.80949 11.4353 
108 2 4.12462 12.9114 10.9532 
15 2 1.59506 8.35474 10.5895 
25 1 12.2545 0.881026 0.120954 
109 2 8.36361 5.28018 1.19505 
11 1 7.13194 1.41159 13.0509 
99 2 7.21677 0.541009 1.31143 
135 2 11.1513 0.499757 1.28524 
74 2 7.4538 2.93591 0.372392 
63 1 8.37558 4.22619 13.0804 
126 2 9.23237 6.6779 3.32871 
51 2 7.04581 1.91713 3.65577 
88 2 8.60245 4.03287 3.54541 
84 1 7.94543 2.92832 4.55916 
17 1 8.3042 5.4622 2.80532 
122 2 6.78356 5.89328 3.27003 
5 2 10.3677 0.234272 3.84717 
93 1 12.934 3.14835 4.46362 
81 2 11.5549 2.37264 4.81422 
43 2 11.0316 0.497331 6.4631 
4 2 7.10205 3.80812 5.63886 
103 2 7.76172 6.03957 6.8476 
129 2 9.02593 1.98949 5.3297 
22 1 10.4416 1.22495 5.12709 
7 1 6.50149 5.06654 6.50255 
144 2 0.0343745 4.45116 5.38802 
2 1 9.12915 6.28554 7.72696 
76 2 7.87443 2.72352 8.51742 
13 1 9.41031 3.25504 8.79535 
23 2 9.38248 4.86768 8.50843 
106 2 10.6188 2.544 7.94192 
86 1 11.6925 1.32872 7.72601 
6 2 11.6798 0.319467 8.99642 
30 2 7.63961 4.78895 11.7294 
111 2 11.9615 4.29183 11.2703 
57 1 10.8484 3.13405 11.6152 
98 2 11.5015 1.69712 12.0315 
123 2 8.07492 0.930439 11.8277 
35 2 9.85817 2.97391 10.3321 
85 1 12.998 5.45513 10.8003 
119 2 9.88322 3.69256 12.8042 
145 2 11.0362 10.682 0.2559 
141 2 8.58829 9.80713 0.10888 
18 1 9.77687 10.1807 1.15058 
147 2 10.0856 8.92882 2.12698 
53 2 9.55209 11.5203 2.08168 
105 2 8.56232 9.05819 4.1357 
150 2 12.1228 11.6864 2.74201 
82 1 9.84139 8.16867 3.54577 
47 1 7.00282 9.4465 4.02322 
66 2 11.0231 8.13175 4.64659 
8 1 10.7521 12.5654 2.47914 
46 2 12.8717 9.17271 2.29738 
143 2 12.411 6.55137 2.6798 
91 1 11.5139 7.57514 6.09244 
29 2 11.4575 8.85719 7.09463 
64 2 10.3755 6.57352 6.72356 
134 2 13.019 6.93423 6.15933 
69 2 10.6188 10.9735 8.60327 
27 1 7.38004 7.96601 9.55588 
130 2 8.7459 7.48281 8.78862 
26 1 10.6889 12.2799 9.57641 
114 2 12.4431 9.22119 9.47956 
45 1 11.8282 9.97796 8.18141 
60 2 9.21972 12.9517 9.68954 
59 1 7.90755 12.9616 10.6221 
38 1 7.46955 10.0726 12.0639 
100 2 7.48772 8.93644 10.8836 
3 2 11.2728 11.682 10.9743 
107 2 7.79327 11.5033 11.3584 
73 1 12.1334 11.1471 12.2681 
1 2 12.5011 7.01962 10.9147 
31 2 12.8575 12.5232 12.801 
10 2 12.9306 9.76883 11.9142 
71 1 13.1047 8.55659 10.8231 
