ITEM: TIMESTEP
0
ITEM: NUMBER OF ATOMS
150
ITEM: BOX BOUNDS pp pp pp
-1.4334484766829192e-03 1.3022690310858938e+01
-1.4334484766829192e-03 1.3022690310858938e+01
-1.4334484766829192e-03 1.3022690310858938e+01
ITEM: ATOMS id type x y z 
70 2 2.18057 5.15056 1.97623 
128 2 4.10993 6.91521 1.29392 
40 1 4.2092 1.92327 3.01863 
32 1 1.79342 3.74036 2.65753 
50 1 2.55495 6.48374 1.15305 
101 2 4.03246 1.32931 1.49703 
95 2 1.24191 2.59194 1.6301 
62 2 3.15816 3.10269 3.28737 
124 2 5.76389 2.39545 3.16204 
55 1 7.16894 1.81391 3.74654 
54 1 6.61733 7.16018 5.26026 
21 2 5.24739 7.22655 4.40648 
14 2 0.661446 3.94718 3.79317 
68 2 2.95317 6.83803 5.77005 
72 2 2.58167 5.73887 8.07506 
94 1 2.3121 1.97603 7.08551 
36 2 3.92478 2.06038 7.34036 
146 2 6.35659 6.42396 6.69105 
19 1 1.77484 6.41638 6.80746 
20 1 5.37391 1.49829 7.83591 
113 2 6.53324 2.61098 8.10898 
79 2 1.23831 2.3193 8.2996 
42 2 1.80111 2.93405 5.8845 
127 2 3.86679 4.38134 10.2773 
33 1 2.88662 5.55131 9.66331 
116 2 6.27998 3.20841 10.615 
112 2 1.37606 5.56218 10.3156 
131 2 7.00785 5.06041 8.9832 
56 2 3.62257 6.92799 10.1707 
52 1 7.2273 3.46369 9.31417 
139 2 4.57385 3.02075 12.5373 
117 2 5.82858 5.38106 11.8868 
77 1 4.8635 1.51809 0.108463 
110 2 2.23669 6.13261 12.624 
16 1 7.05586 6.44095 12.1064 
9 2 6.44051 1.43547 0.574366 
149 2 7.37209 7.34361 10.7898 
140 2 6.57075 7.3976 0.314663 
34 1 5.06095 4.03515 11.3512 
83 1 6.29192 10.5494 2.06951 
65 1 5.11286 8.02562 0.680173 
104 2 5.34473 9.2919 1.66156 
138 2 5.2842 11.7073 2.64813 
148 2 1.62694 7.77515 1.54784 
142 2 7.20924 10.8674 0.757544 
96 1 3.83795 7.86405 4.89471 
78 1 4.30958 12.0795 3.88795 
118 2 5.13304 11.5518 5.28826 
125 2 6.86623 0.341337 4.38292 
115 2 2.92834 8.39998 3.67817 
87 2 2.85276 11.3987 3.86575 
121 2 7.26426 10.1793 3.34421 
61 2 7.11414 8.7012 5.48059 
39 2 4.07648 0.651128 4.04011 
92 1 1.25251 11.1439 4.13802 
102 2 1.18468 11.0601 5.77072 
58 1 6.57052 12.421 5.66686 
89 1 1.38376 8.28055 3.08815 
137 2 7.71761 11.2805 5.67397 
132 2 4.24502 9.14018 5.86145 
90 2 3.32211 11.2379 7.20993 
80 1 4.6306 10.5349 6.56948 
67 1 1.80839 11.8427 7.06303 
41 2 5.80778 10.5576 7.68462 
12 2 2.00639 0.40023 6.72627 
44 2 6.03707 0.359905 6.85279 
24 2 0.860726 11.6212 8.35273 
120 2 5.8795 11.5157 10.2205 
75 1 6.14448 10.2209 9.25588 
28 2 5.03622 9.11628 9.7107 
48 1 5.72117 0.0714762 10.599 
49 2 7.26343 0.610533 10.8197 
97 1 3.94012 8.43268 10.6919 
136 2 7.63727 9.64427 9.54919 
133 2 5.09859 0.775133 9.27249 
37 2 4.487 8.44226 12.2368 
108 2 4.81619 0.4399 11.9045 
15 2 2.50914 9.212 10.6476 
25 1 0.121877 1.6078 0.975643 
109 2 8.7567 5.4792 2.24468 
11 1 7.96331 1.9062 0.914411 
99 2 8.21311 1.67063 2.50778 
135 2 12.1237 1.08116 2.15726 
74 2 8.09233 3.49576 0.650727 
63 1 8.99457 4.84788 0.772293 
126 2 10.2639 6.97662 3.8627 
51 2 7.67166 2.76214 4.95246 
88 2 9.60291 4.43578 4.59402 
84 1 8.87311 3.52151 5.74479 
17 1 9.1718 5.78875 3.78237 
122 2 7.83174 6.3624 4.54131 
5 2 11.4158 0.880116 4.77599 
93 1 0.564026 3.92155 5.40289 
81 2 12.2387 3.1406 5.85339 
43 2 12.0781 1.11388 7.39147 
4 2 8.30034 4.56775 6.84859 
103 2 8.6415 6.93437 7.86944 
129 2 9.82986 2.3608 6.36493 
22 1 11.3374 1.80483 6.10822 
7 1 7.51401 5.78682 7.62725 
144 2 0.76464 5.28508 6.23534 
2 1 10.0828 6.97287 8.66522 
76 2 8.83458 3.26195 9.49241 
13 1 10.3575 3.8694 9.65406 
23 2 10.2694 5.44628 9.21546 
106 2 11.5948 3.14728 8.85829 
86 1 12.711 1.96121 8.66482 
6 2 12.594 1.01066 9.97645 
30 2 8.47031 5.76893 12.5608 
111 2 12.7505 5.20619 12.3534 
57 1 11.6622 4.00395 12.582 
98 2 12.3431 2.5703 12.955 
123 2 8.91481 1.12995 12.8863 
35 2 10.7885 3.81456 11.2201 
85 1 0.86328 6.18974 11.7323 
119 2 10.5662 4.44373 0.678748 
145 2 12.355 11.1586 1.15725 
141 2 9.79623 10.6097 0.972667 
18 1 11.0558 10.6626 1.99766 
147 2 11.2103 9.22649 2.72575 
53 2 10.8685 11.8814 3.08556 
105 2 9.48821 9.36999 4.60927 
150 2 0.327473 12.4132 3.7134 
82 1 10.8092 8.48469 4.11662 
47 1 7.98354 9.91281 4.81013 
66 2 11.8557 8.53007 5.34317 
8 1 11.8877 0.0912696 3.43766 
46 2 0.821051 9.78479 3.37792 
143 2 0.66027 7.09942 3.87535 
91 1 12.3586 8.33222 6.86818 
29 2 12.1715 9.80969 7.54147 
64 2 11.2958 7.37601 7.67656 
134 2 0.848502 7.74538 7.11823 
69 2 11.416 11.7766 9.30719 
27 1 8.40983 8.58923 10.5304 
130 2 9.79076 8.02435 9.88365 
26 1 11.4633 12.9555 10.4277 
114 2 12.9956 9.77439 9.99504 
45 1 12.5567 10.7579 8.77884 
60 2 10.0258 0.672523 10.5274 
59 1 8.74095 0.362182 11.4575 
38 1 8.58448 10.6024 12.921 
100 2 8.57789 9.25282 12.0133 
3 2 11.9234 12.2544 11.8226 
107 2 8.77751 11.8033 11.8418 
73 1 0.0712229 11.8126 12.8922 
1 2 0.54665 7.79408 11.6205 
31 2 0.718173 0.227187 0.315643 
10 2 0.926367 10.5913 12.2344 
71 1 0.972963 9.32413 11.1944 
