ITEM: TIMESTEP
0
ITEM: NUMBER OF ATOMS
150
ITEM: BOX BOUNDS pp pp pp
-5.5126834546805198e-03 1.3026644919840866e+01
-5.5126834546805198e-03 1.3026644919840866e+01
-5.5126834546805198e-03 1.3026644919840866e+01
ITEM: ATOMS id type x y z 
70 2 1.43303 4.70354 1.93583 
128 2 3.3876 6.56991 1.36478 
40 1 3.52988 1.43615 2.9941 
32 1 1.0865 3.30463 2.67372 
50 1 1.84674 6.08468 1.20093 
101 2 3.44465 0.81703 1.47488 
95 2 0.382842 2.0839 1.83 
62 2 2.50649 2.65795 3.15866 
124 2 5.08021 1.88862 3.2433 
55 1 6.4536 1.25862 3.84779 
54 1 5.91393 6.65822 5.22089 
21 2 4.49601 6.69787 4.44428 
14 2 0.119807 3.57786 3.93473 
68 2 2.23142 6.26197 5.80937 
72 2 2.05536 5.15582 8.11633 
94 1 1.70964 1.37462 7.14251 
36 2 3.31507 1.35644 7.45656 
146 2 5.73431 6.01577 6.71062 
19 1 1.13329 5.80254 6.91876 
20 1 4.8037 0.920775 7.9732 
113 2 5.93868 2.07521 8.16728 
79 2 0.624669 1.83866 8.30213 
42 2 1.31736 2.34207 5.89984 
127 2 3.37425 3.93463 10.3221 
33 1 2.37853 5.08291 9.70528 
116 2 5.79453 2.70293 10.6744 
112 2 0.860951 5.13323 10.3517 
131 2 6.31227 4.5499 8.97929 
56 2 3.11978 6.48081 10.1238 
52 1 6.65932 2.97916 9.32041 
139 2 3.93876 2.41143 12.4459 
117 2 5.30153 4.78669 12.0477 
77 1 4.32092 0.983044 0.1143 
110 2 1.61918 5.76724 12.6538 
16 1 6.48953 5.89445 12.2541 
9 2 5.87822 1.13334 0.614499 
149 2 6.82808 6.73052 10.899 
140 2 5.8886 6.91806 0.342971 
34 1 4.54061 3.49737 11.3874 
83 1 5.63023 10.1751 2.04945 
65 1 4.44171 7.59558 0.675621 
104 2 4.72905 8.89711 1.59675 
138 2 4.54994 11.2188 2.72548 
148 2 0.829893 7.30203 1.60816 
142 2 6.54202 10.5557 0.740136 
96 1 3.07907 7.32172 4.93354 
78 1 3.55469 11.6101 3.95006 
118 2 4.36054 11.0892 5.36563 
125 2 6.07221 12.8375 4.46951 
115 2 2.11133 7.82551 3.74848 
87 2 2.10185 10.9089 4.01971 
121 2 6.65421 9.78791 3.28175 
61 2 6.42959 8.20234 5.33586 
39 2 3.29665 0.177636 4.01746 
92 1 0.49876 10.64 4.26969 
102 2 0.372256 10.5306 5.89891 
58 1 5.84286 11.8682 5.74693 
89 1 0.561554 7.78398 3.1524 
137 2 6.99982 10.7506 5.68092 
132 2 3.48458 8.62596 5.86494 
90 2 2.5429 10.6632 7.29116 
80 1 3.84529 10.0192 6.58832 
67 1 1.02584 11.2727 7.20168 
41 2 5.06049 10.0457 7.65921 
12 2 1.25662 12.8518 6.84956 
44 2 5.45276 12.8046 6.99954 
24 2 0.154498 11.0188 8.5404 
120 2 5.52024 11.0083 10.2058 
75 1 5.41405 9.71045 9.22172 
28 2 4.1243 8.87668 9.76291 
48 1 5.32995 12.5444 10.7132 
49 2 6.84863 0.0781671 10.9764 
97 1 3.17948 7.9853 10.7314 
136 2 6.78755 8.86577 9.39147 
133 2 4.62442 0.263405 9.45304 
37 2 3.80491 7.98948 12.2436 
108 2 4.41456 12.8189 12.0374 
15 2 1.64119 8.50549 10.7927 
25 1 12.3716 0.986675 1.21773 
109 2 8.47044 5.24253 2.34964 
11 1 7.38828 1.52346 1.08638 
99 2 7.52161 1.06146 2.64105 
135 2 11.2613 0.504348 2.33608 
74 2 7.60966 3.12194 1.04857 
63 1 8.5702 4.43986 0.951702 
126 2 9.62485 6.48513 4.39335 
51 2 7.02697 2.15715 5.0556 
88 2 8.91152 3.88876 4.63033 
84 1 8.21048 2.98313 5.8005 
17 1 8.578 5.33743 3.96017 
122 2 7.10041 5.80187 4.51417 
5 2 10.5853 0.16013 4.94555 
93 1 0.0236133 3.29942 5.5131 
81 2 11.7462 2.38759 5.81533 
43 2 11.4025 0.585692 7.53452 
4 2 7.57975 4.05447 6.84514 
103 2 8.04465 6.33084 7.95765 
129 2 9.25261 1.91987 6.45094 
22 1 10.6904 1.19759 6.19419 
7 1 6.8422 5.29178 7.64009 
144 2 0.132925 4.61847 6.43487 
2 1 9.47403 6.45993 8.75283 
76 2 8.27666 2.85032 9.47263 
13 1 9.80532 3.39876 9.74874 
23 2 9.74456 5.00436 9.43661 
106 2 11.0486 2.70214 8.93636 
86 1 12.1213 1.483 8.72553 
6 2 12.1088 0.546078 10.0499 
30 2 7.91624 5.28698 12.7569 
111 2 12.2927 4.44765 12.3592 
57 1 11.1162 3.3363 12.6473 
98 2 11.6454 1.84679 0.0283142 
123 2 8.37946 0.821966 0.0208838 
35 2 10.1865 3.21712 11.3161 
85 1 0.237992 5.61782 11.7797 
119 2 10.0992 3.93203 0.741792 
145 2 11.5245 10.4755 1.16632 
141 2 9.00347 9.76979 1.10014 
18 1 10.2958 9.93311 2.0802 
147 2 10.5587 8.53506 2.85961 
53 2 10.1298 11.1922 3.13908 
105 2 8.85255 8.94332 4.67954 
150 2 12.575 11.8761 3.8234 
82 1 10.1959 8.00316 4.35817 
47 1 7.32148 9.44295 4.75285 
66 2 11.2594 8.23372 5.55028 
8 1 11.0609 12.4717 3.56566 
46 2 0.0894779 9.31915 3.43605 
143 2 12.783 6.66085 3.93938 
91 1 11.7443 7.78304 7.03123 
29 2 11.5375 9.13645 7.91998 
64 2 10.6547 6.75386 7.68989 
134 2 0.204248 7.12745 7.23922 
69 2 10.7622 11.3376 9.47191 
27 1 7.69165 8.05946 10.4831 
130 2 9.1369 7.60555 9.87612 
26 1 10.9872 12.5238 10.5713 
114 2 12.1825 9.34171 10.3998 
45 1 11.853 10.2098 9.0694 
60 2 9.58804 0.291482 10.7463 
59 1 8.31481 12.9882 11.6797 
38 1 7.92327 10.1284 12.9695 
100 2 7.74956 8.94678 11.8602 
3 2 11.5372 11.7932 11.9152 
107 2 8.44588 11.4266 12.1374 
73 1 12.495 11.2033 0.0834865 
1 2 12.7069 7.16285 11.7905 
31 2 0.0344542 12.6015 0.739762 
10 2 0.359052 9.95169 12.5565 
71 1 0.174704 8.70673 11.4895 
