ITEM: TIMESTEP
0
ITEM: NUMBER OF ATOMS
150
ITEM: BOX BOUNDS pp pp pp
-4.5855806566465207e-03 1.3100291670409627e+01
-4.5855806566465207e-03 1.3100291670409627e+01
-4.5855806566465207e-03 1.3100291670409627e+01
ITEM: ATOMS id type x y z 
70 2 1.25623 4.4589 1.03282 
128 2 3.11427 6.26783 0.331446 
40 1 3.33631 1.14901 2.03474 
32 1 0.898828 3.05209 1.74437 
50 1 1.56335 5.81113 0.203791 
101 2 3.28556 0.614799 0.482586 
95 2 0.161117 1.8976 0.837817 
62 2 2.29725 2.35804 2.22844 
124 2 4.8918 1.56916 2.29068 
55 1 6.2753 0.827628 2.7504 
54 1 5.5752 6.51636 4.15948 
21 2 4.15948 6.53099 3.38021 
14 2 13.0231 3.36881 2.98978 
68 2 1.90696 6.04104 4.74561 
72 2 1.84436 5.30486 7.22302 
94 1 1.27421 1.16698 6.26207 
36 2 2.84097 1.28021 6.68386 
146 2 5.39252 5.8133 5.6218 
19 1 0.882265 5.66575 5.94808 
20 1 4.31626 0.733729 7.08781 
113 2 5.53049 1.80876 7.2331 
79 2 0.116646 1.61927 7.34118 
42 2 0.97732 2.05389 4.94094 
127 2 2.93018 3.84368 9.3477 
33 1 2.04421 5.11282 8.82048 
116 2 5.29168 2.55747 9.67734 
112 2 0.494546 5.13851 9.37464 
131 2 5.95887 4.31484 7.91042 
56 2 2.82179 6.3977 9.4785 
52 1 6.23578 2.75398 8.36227 
139 2 3.42032 2.25433 11.4553 
117 2 4.85275 4.57525 11.1447 
77 1 4.0403 0.931666 12.183 
110 2 1.21526 5.41532 11.7697 
16 1 6.18751 5.45796 11.4912 
9 2 5.57691 1.36606 12.5787 
149 2 6.58351 6.45379 10.267 
140 2 5.77069 6.332 12.81 
34 1 4.05316 3.34386 10.4194 
83 1 5.3337 9.83463 1.29074 
65 1 4.40111 7.1761 13.0555 
104 2 4.68457 8.36363 1.01777 
138 2 4.1243 10.7959 1.84749 
148 2 0.573811 7.05513 0.611754 
142 2 6.03592 10.2164 12.9712 
96 1 2.74787 7.12957 3.90418 
78 1 3.12893 11.3435 3.00823 
118 2 3.94198 10.8551 4.44223 
125 2 5.79286 12.627 3.59029 
115 2 1.77712 7.6987 2.75192 
87 2 1.60606 10.8154 3.05267 
121 2 6.43506 9.7551 2.51461 
61 2 6.04924 8.06091 4.40165 
39 2 3.0644 12.9637 3.0053 
92 1 13.098 10.4939 3.2604 
102 2 12.9984 10.4371 4.89935 
58 1 5.35129 11.7361 4.859 
89 1 0.242912 7.62674 2.11985 
137 2 6.48889 10.6057 5.00612 
132 2 3.15818 8.37208 4.91038 
90 2 2.09946 10.3928 6.25194 
80 1 3.46159 9.75846 5.67216 
67 1 0.641743 11.1212 6.1789 
41 2 4.55836 9.77218 6.86523 
12 2 0.947971 12.7005 5.92356 
44 2 4.82502 12.6902 6.039 
24 2 12.9527 10.9096 7.56455 
120 2 5.21942 10.8908 9.29559 
75 1 4.9631 9.52292 8.43585 
28 2 3.66881 8.82852 9.14127 
48 1 5.00769 12.4399 9.75718 
49 2 6.50728 13.0945 9.87619 
97 1 3.04452 7.81765 10.2453 
136 2 6.25043 8.54724 8.64628 
133 2 4.17756 0.015919 8.53996 
37 2 4.03637 7.74375 11.5435 
108 2 4.22865 12.7864 11.1483 
15 2 1.57655 8.28208 10.7583 
25 1 12.1767 0.848927 0.223147 
109 2 8.35304 5.20793 1.2947 
11 1 7.09275 1.3373 0.0729247 
99 2 7.04646 0.376153 1.38934 
135 2 11.0288 0.441195 1.33757 
74 2 7.5616 2.78472 0.619254 
63 1 8.36211 4.11373 0.105048 
126 2 9.22093 6.60074 3.41602 
51 2 7.10042 1.82043 3.71368 
88 2 8.64966 3.95307 3.63847 
84 1 7.94401 2.86221 4.63153 
17 1 8.30308 5.37391 2.90613 
122 2 6.76773 5.75181 3.36676 
5 2 10.2568 0.209967 3.90844 
93 1 12.8762 3.11317 4.56903 
81 2 11.4952 2.32324 4.87993 
43 2 11.0204 0.41384 6.50414 
4 2 7.03876 3.75658 5.64471 
103 2 7.72736 5.9767 6.85559 
129 2 8.98885 1.9482 5.47759 
22 1 10.387 1.1732 5.2055 
7 1 6.45941 5.00678 6.53115 
144 2 13.0916 4.37501 5.54971 
2 1 9.06467 6.20282 7.7839 
76 2 7.84837 2.61193 8.56769 
13 1 9.38108 3.15527 8.83231 
23 2 9.3257 4.76192 8.51693 
106 2 10.6063 2.44245 8.00347 
86 1 11.6911 1.23973 7.76612 
6 2 11.6923 0.252957 9.05185 
30 2 7.50787 4.5951 11.8979 
111 2 11.9384 4.25744 11.2795 
57 1 10.8307 3.10277 11.6468 
98 2 11.4768 1.6692 12.0953 
123 2 8.01967 0.830495 11.9529 
35 2 9.82453 2.925 10.3793 
85 1 12.9636 5.44433 10.8445 
119 2 9.87654 3.66999 12.84 
145 2 10.9933 10.6288 0.354455 
141 2 8.53862 9.75679 0.180004 
18 1 9.72888 10.1035 1.22818 
147 2 10.0534 8.82831 2.16911 
53 2 9.49045 11.4262 2.1801 
105 2 8.50541 8.98253 4.15643 
150 2 12.0526 11.6757 2.83849 
82 1 9.80531 8.10448 3.60677 
47 1 6.94968 9.37487 4.04093 
66 2 10.9569 8.1195 4.73611 
8 1 10.659 12.5132 2.55603 
46 2 12.8294 9.15711 2.38117 
143 2 12.4727 6.55352 2.91112 
91 1 11.46 7.55812 6.17472 
29 2 11.4407 8.83345 7.18492 
64 2 10.3247 6.56294 6.82335 
134 2 12.9597 6.90942 6.21561 
69 2 10.6194 10.9263 8.71774 
27 1 7.28418 7.81841 9.6875 
130 2 8.63574 7.33637 8.89553 
26 1 10.6864 12.245 9.67324 
114 2 12.4815 9.19581 9.5508 
45 1 11.8347 9.94962 8.26649 
60 2 9.23034 12.9424 9.79335 
59 1 7.90018 12.9045 10.6991 
38 1 7.42775 10.0097 12.1173 
100 2 7.4245 8.82865 10.9824 
3 2 11.2547 11.6663 11.0823 
107 2 7.77414 11.4128 11.3666 
73 1 12.099 11.1134 12.3766 
1 2 12.4401 6.99791 10.9838 
31 2 12.8142 12.4877 12.9251 
10 2 12.8892 9.73715 12.0046 
71 1 13.0761 8.52239 10.9201 
