ITEM: TIMESTEP
0
ITEM: NUMBER OF ATOMS
150
ITEM: BOX BOUNDS pp pp pp
-3.0518806785492635e-03 1.3022288158034034e+01
-3.0518806785492635e-03 1.3022288158034034e+01
-3.0518806785492635e-03 1.3022288158034034e+01
ITEM: ATOMS id type x y z 
70 2 0.772916 4.12276 0.69612 
128 2 2.71459 5.78093 0.0984794 
40 1 3.12625 0.781268 1.72493 
32 1 0.629733 2.72869 1.50828 
50 1 1.12718 5.48801 12.9196 
101 2 3.14243 0.116097 0.220036 
95 2 12.8129 1.54442 0.754072 
62 2 2.07738 2.00674 1.80324 
124 2 4.68186 1.18549 2.03918 
55 1 6.00686 0.332072 2.49528 
54 1 5.21238 5.93574 3.84065 
21 2 3.78055 5.84163 3.08097 
14 2 12.8675 3.10608 2.87039 
68 2 1.64435 5.25001 4.54096 
72 2 1.56011 4.62756 7.04859 
94 1 1.23804 0.761437 5.94985 
36 2 2.74573 0.820249 6.52414 
146 2 5.16169 5.28573 5.34124 
19 1 0.624765 5.05484 5.79282 
20 1 4.13714 0.137691 6.98367 
113 2 5.35887 1.20309 7.07478 
79 2 13.0144 0.939149 7.00567 
42 2 1.03014 1.89404 4.81704 
127 2 2.49159 3.38627 9.2776 
33 1 1.60211 4.6158 8.67012 
116 2 5.05524 2.27404 9.36932 
112 2 -0.00246378 4.78142 9.02045 
131 2 5.92653 3.81529 7.52563 
56 2 2.31444 5.96945 9.26184 
52 1 6.06441 2.2747 8.08834 
139 2 3.21586 1.42366 10.959 
117 2 4.3428 3.95053 11.1122 
77 1 3.91834 0.234623 11.8221 
110 2 0.678329 5.16359 11.3921 
16 1 5.75474 4.74698 11.3637 
9 2 5.42362 0.801214 12.171 
149 2 6.1799 5.68084 10.0907 
140 2 5.43747 5.67168 12.6798 
34 1 3.70775 2.76444 10.1743 
83 1 5.11061 9.26167 1.01325 
65 1 4.09313 6.57961 12.8204 
104 2 4.35692 7.81735 0.820374 
138 2 3.97659 10.3172 1.57103 
148 2 0.307719 6.86291 0.246913 
142 2 5.80319 9.53637 12.5859 
96 1 2.3392 6.38667 3.61837 
78 1 2.94518 10.896 2.69015 
118 2 3.66952 10.2926 4.13598 
125 2 5.47306 12.1745 3.48835 
115 2 1.17694 6.88848 2.60947 
87 2 1.4046 10.4146 2.61444 
121 2 6.25609 9.17869 2.20177 
61 2 5.68353 7.49445 4.01668 
39 2 2.85603 12.5187 2.71269 
92 1 12.7845 10.2517 2.73133 
102 2 12.5721 10.2991 4.35777 
58 1 5.06364 11.1465 4.66378 
89 1 12.8151 7.2273 1.76402 
137 2 6.1934 10.0012 4.70685 
132 2 2.80083 7.70649 4.51298 
90 2 1.73515 9.77783 5.72691 
80 1 3.12878 9.09497 5.26836 
67 1 0.469018 10.7987 5.59376 
41 2 4.20471 9.0069 6.48733 
12 2 1.0416 12.2926 5.2935 
44 2 4.57215 11.9521 5.96633 
24 2 12.7337 10.8133 7.01562 
120 2 5.09871 10.2262 8.78926 
75 1 4.73601 8.81019 8.03675 
28 2 3.46128 8.25201 8.88657 
48 1 4.81905 11.6817 9.46941 
49 2 6.22506 12.5248 9.49749 
97 1 2.81296 7.31455 10.0355 
136 2 5.94036 7.74305 8.33063 
133 2 3.85367 12.4701 8.42754 
37 2 3.86617 7.08355 11.2577 
108 2 4.19349 11.8882 10.9662 
15 2 1.50765 8.00963 10.7071 
25 1 11.7796 0.676427 12.8735 
109 2 7.87059 4.60183 0.999494 
11 1 6.90872 0.584574 12.8262 
99 2 6.61329 12.6902 1.12622 
135 2 10.5092 0.253432 0.819421 
74 2 7.45972 1.96883 0.439614 
63 1 7.99196 3.41541 12.9456 
126 2 8.84928 6.14402 3.00351 
51 2 7.01855 1.27437 3.33014 
88 2 8.49155 3.48041 3.28465 
84 1 7.82058 2.34951 4.24879 
17 1 7.97461 4.86583 2.58541 
122 2 6.44389 5.17042 3.10643 
5 2 9.99008 12.7961 3.50413 
93 1 12.682 2.68597 4.4035 
81 2 11.4807 1.61369 4.56047 
43 2 10.7357 12.8535 6.21448 
4 2 6.83485 3.20684 5.2208 
103 2 7.6482 5.44833 6.35482 
129 2 8.91365 1.53319 5.13192 
22 1 10.2288 0.6143 4.87285 
7 1 6.3448 4.48915 6.11333 
144 2 12.5523 3.90463 5.45338 
2 1 8.88734 5.65109 7.42788 
76 2 7.67003 2.02541 8.24286 
13 1 9.19498 2.58883 8.47225 
23 2 9.18705 4.15038 7.99595 
106 2 10.4721 1.8394 7.77499 
86 1 11.491 0.592515 7.47848 
6 2 11.4269 12.6847 8.80525 
30 2 7.01067 3.76262 11.6819 
111 2 11.2213 4.36444 10.8874 
57 1 10.4775 2.96998 11.2835 
98 2 11.4014 1.67304 11.639 
123 2 7.81985 0.0353494 11.5936 
35 2 9.48125 2.53978 10.0732 
85 1 12.3981 5.36873 10.4135 
119 2 9.55269 3.24329 12.58 
145 2 10.8652 10.0033 0.0342358 
141 2 8.35547 9.24515 12.8024 
18 1 9.50407 9.63795 0.854233 
147 2 9.71025 8.50602 1.98315 
53 2 9.23426 11.07 1.61912 
105 2 8.22467 8.38238 4.01687 
150 2 11.8215 11.4594 2.18687 
82 1 9.5317 7.58244 3.31289 
47 1 6.68085 8.76734 3.75225 
66 2 10.7292 7.48018 4.40017 
8 1 10.3387 12.1964 2.0366 
46 2 12.5187 8.80231 2.0651 
143 2 11.6029 6.2445 2.07319 
91 1 11.313 7.14372 5.87616 
29 2 11.462 8.56896 6.63635 
64 2 10.2025 6.26894 6.70621 
134 2 12.7877 6.43349 5.93602 
69 2 10.692 10.2031 8.59495 
27 1 6.90817 6.99792 9.4368 
130 2 8.27338 6.54546 8.6596 
26 1 10.3267 11.6084 9.31677 
114 2 12.9738 8.82182 8.75242 
45 1 11.9503 9.60129 7.76235 
60 2 8.83963 12.2174 9.13103 
59 1 7.64319 12.1853 10.2225 
38 1 7.16671 9.32925 11.6898 
100 2 7.11202 8.04101 10.6896 
3 2 10.458 11.3641 10.9142 
107 2 7.42005 10.6512 10.7664 
73 1 11.6457 10.8339 11.91 
1 2 12.1346 6.98419 10.3862 
31 2 12.3428 12.2321 12.3916 
10 2 12.5221 9.72844 11.1099 
71 1 13.0013 8.38323 10.3315 
