ITEM: TIMESTEP
0
ITEM: NUMBER OF ATOMS
150
ITEM: BOX BOUNDS pp pp pp
0.0000000000000000e+00 1.3042603519544386e+01
0.0000000000000000e+00 1.3042603519544386e+01
0.0000000000000000e+00 1.3042603519544386e+01
ITEM: ATOMS id type x y z 
70 2 0.865536 4.64414 1.21777 
128 2 2.96684 6.18741 0.539694 
40 1 3.20303 1.39414 2.11103 
32 1 0.642345 3.18733 1.88222 
50 1 1.37445 5.93506 0.394237 
101 2 3.10697 0.7634 0.588195 
95 2 13.005 2.0161 0.962859 
62 2 2.12879 2.59215 2.27525 
124 2 4.79343 1.70362 2.38485 
55 1 6.20453 0.956595 2.78267 
54 1 5.41329 6.35282 4.32814 
21 2 3.96843 6.54654 3.61074 
14 2 12.6571 3.37439 3.1192 
68 2 1.90016 6.50076 5.34041 
72 2 1.56334 5.05764 7.38182 
94 1 1.20133 1.18877 6.29893 
36 2 2.79206 1.4321 6.55571 
146 2 5.16733 5.50476 5.70367 
19 1 0.713582 5.76004 6.17823 
20 1 4.30788 1.02153 6.96754 
113 2 5.33004 2.19588 7.39574 
79 2 0.0665488 1.45064 7.47789 
42 2 0.730074 2.10804 5.05485 
127 2 2.74949 4.03467 9.60251 
33 1 1.85957 5.23044 8.9558 
116 2 5.11455 2.75883 9.89735 
112 2 0.32355 5.41953 9.53085 
131 2 5.93566 4.5332 8.20548 
56 2 2.77537 6.54538 9.30687 
52 1 6.11035 2.94595 8.61946 
139 2 3.1875 2.48605 11.638 
117 2 4.73857 4.79202 11.348 
77 1 3.79919 1.07902 12.1891 
110 2 1.08929 5.54939 11.8849 
16 1 6.06409 5.70669 11.6836 
9 2 5.34213 1.47777 12.5949 
149 2 6.4302 6.77026 10.5045 
140 2 5.6463 6.49298 0.0231603 
34 1 3.89819 3.57004 10.6503 
83 1 5.05676 9.75701 1.52952 
65 1 4.17315 7.1849 0.137128 
104 2 4.1874 8.42693 1.17695 
138 2 4.00112 10.8983 2.07148 
148 2 0.547295 7.29452 0.769284 
142 2 5.90859 10.0345 0.160866 
96 1 2.64667 7.32515 4.16255 
78 1 3.03405 11.5659 3.19661 
118 2 3.82724 11.2122 4.6674 
125 2 5.81635 12.5801 3.48359 
115 2 1.44738 7.59959 3.11436 
87 2 1.54854 10.9449 3.26663 
121 2 6.07802 9.45642 2.77959 
61 2 6.0066 7.82852 4.75925 
39 2 2.91908 0.132625 3.11846 
92 1 12.9723 10.6573 3.37438 
102 2 12.729 10.5587 4.9891 
58 1 5.38895 11.8839 4.87562 
89 1 0.0234163 7.73354 2.27279 
137 2 6.30414 10.5684 5.09356 
132 2 3.26163 8.71208 4.80494 
90 2 1.90519 10.2847 6.35334 
80 1 3.38381 9.99752 5.77705 
67 1 0.504277 11.1197 6.2754 
41 2 4.4327 10.06 7.01294 
12 2 0.996662 12.6428 5.95076 
44 2 5.07072 0.0606086 5.88505 
24 2 12.707 10.9713 7.6439 
120 2 5.25693 11.0979 9.37549 
75 1 4.97051 9.73259 8.52995 
28 2 3.74906 8.99008 9.31257 
48 1 4.91252 12.6642 9.67079 
49 2 6.37701 0.349171 9.81199 
97 1 3.04244 7.86293 10.2343 
136 2 6.25213 8.73338 8.64133 
133 2 4.15495 0.119666 8.32337 
37 2 3.88638 7.64863 11.6197 
108 2 4.00561 13.0284 10.9854 
15 2 1.54547 8.27763 10.6992 
25 1 11.9587 0.952429 0.315347 
109 2 8.35055 5.25309 1.52849 
11 1 6.84385 1.62148 0.141929 
99 2 6.9857 0.60527 1.39968 
135 2 10.7674 0.555051 1.38433 
74 2 7.15504 3.07235 0.777033 
63 1 8.18746 4.24398 0.281704 
126 2 9.02311 6.59581 3.70634 
51 2 7.01468 1.8762 3.83491 
88 2 8.60948 3.92649 3.89076 
84 1 7.88114 2.81395 4.85314 
17 1 8.20174 5.32933 3.1428 
122 2 6.60689 5.60968 3.50032 
5 2 10.149 0.249256 4.02751 
93 1 12.5693 3.17993 4.71184 
81 2 11.2402 2.36812 5.17271 
43 2 10.9279 0.258556 6.63208 
4 2 7.05209 3.72094 5.92178 
103 2 7.48231 6.09478 6.87923 
129 2 8.79717 1.76715 5.70361 
22 1 10.2407 1.09126 5.40971 
7 1 6.32609 4.97087 6.6906 
144 2 12.9134 4.55505 5.48155 
2 1 8.85196 6.25526 7.76132 
76 2 7.72362 2.7006 8.71914 
13 1 9.29868 3.19475 8.81727 
23 2 9.24617 4.762 8.32983 
106 2 10.4862 2.31533 8.08458 
86 1 11.5711 1.08465 7.91261 
6 2 11.473 0.16469 9.24099 
30 2 7.40855 4.84341 12.0133 
111 2 11.7341 4.42206 11.4827 
57 1 10.6487 3.20238 11.7303 
98 2 11.3222 1.75045 12.0788 
123 2 7.79752 1.28619 11.9226 
35 2 9.7491 3.12693 10.3792 
85 1 12.7365 5.62237 11.0219 
119 2 9.62086 3.59119 12.9351 
145 2 11.086 10.4059 0.534251 
141 2 8.51357 10.0751 0.134999 
18 1 9.67946 10.0605 1.26887 
147 2 9.74729 8.70982 2.15558 
53 2 9.53353 11.357 2.27475 
105 2 8.3409 9.00612 4.24658 
150 2 12.0565 11.9036 2.86842 
82 1 9.62822 8.10305 3.6687 
47 1 6.74113 9.20881 4.27931 
66 2 10.836 8.25024 4.7462 
8 1 10.5647 12.5668 2.63927 
46 2 12.6775 9.2974 2.55282 
143 2 11.9336 6.7088 2.72834 
91 1 11.2077 7.67274 6.2189 
29 2 11.153 8.91411 7.26434 
64 2 10.0131 6.68949 6.72369 
134 2 12.6461 6.93049 6.47015 
69 2 10.3637 10.8484 8.91095 
27 1 7.21487 8.01416 9.7641 
130 2 8.48336 7.31599 8.97271 
26 1 10.4641 12.1228 9.91573 
114 2 12.3578 9.23971 9.60814 
45 1 11.6197 9.98034 8.36437 
60 2 9.01913 12.7987 10.1412 
59 1 7.611 0.0850149 10.8431 
38 1 7.20437 10.2358 12.2119 
100 2 7.34642 9.16498 10.9613 
3 2 11.1064 11.5313 11.2765 
107 2 7.14245 11.7821 11.6677 
73 1 12.0924 11.092 12.5095 
1 2 12.2661 7.18468 11.2106 
31 2 12.652 12.5416 13.0211 
10 2 0.00904168 9.88681 12.0141 
71 1 13.0285 8.62815 10.9707 
