ITEM: TIMESTEP
0
ITEM: NUMBER OF ATOMS
150
ITEM: BOX BOUNDS pp pp pp
-9.8242322830622165e-06 1.3056826640328206e+01
-9.8242322830622165e-06 1.3056826640328206e+01
-9.8242322830622165e-06 1.3056826640328206e+01
ITEM: ATOMS id type x y z 
70 2 1.31849 4.60019 1.6343 
128 2 3.10506 6.47833 0.744491 
40 1 3.20151 1.13107 2.34163 
32 1 0.814604 3.17362 2.23151 
50 1 1.57564 5.91527 0.716736 
101 2 3.21874 0.635415 0.775226 
95 2 0.0572346 2.1218 1.21315 
62 2 2.12424 2.28056 2.63537 
124 2 4.70325 1.68635 2.63855 
55 1 6.10779 1.13913 3.24527 
54 1 5.68354 6.42276 4.24179 
21 2 4.19474 6.41586 3.60447 
14 2 12.9916 3.50297 3.5495 
68 2 2.22896 5.784 5.20497 
72 2 2.18834 5.67725 7.72864 
94 1 1.47861 1.20743 6.67284 
36 2 3.03379 1.49272 7.04254 
146 2 5.76399 5.74747 5.73399 
19 1 1.19099 5.71153 6.44758 
20 1 4.40713 0.738146 7.45967 
113 2 5.726 1.6969 7.4097 
79 2 0.29086 1.53632 7.75741 
42 2 0.992815 2.02744 5.36596 
127 2 3.0931 3.86735 9.63927 
33 1 2.35448 5.27158 9.28421 
116 2 5.41939 2.56136 9.80824 
112 2 0.79584 5.34108 9.79128 
131 2 6.25461 4.24947 8.00648 
56 2 3.27829 6.38097 10.0464 
52 1 6.39515 2.69487 8.51421 
139 2 3.56796 2.13346 11.6316 
117 2 5.037 4.44368 11.4478 
77 1 4.09823 0.840953 12.4765 
110 2 1.24216 5.39139 12.2674 
16 1 6.26351 5.49002 11.72 
9 2 5.6131 1.28803 12.9492 
149 2 6.51453 6.53875 10.4914 
140 2 5.79273 6.29281 0.0139514 
34 1 4.214 3.26712 10.6581 
83 1 5.61173 9.81749 1.61571 
65 1 4.50649 7.2286 0.386392 
104 2 4.92186 8.3451 1.4927 
138 2 4.43867 10.8273 2.16344 
148 2 0.480984 7.09745 1.04292 
142 2 6.30438 10.1209 0.182006 
96 1 2.79691 6.93626 4.22961 
78 1 3.29343 11.2368 3.23837 
118 2 3.99982 10.7951 4.73057 
125 2 5.71776 12.8786 4.13034 
115 2 1.53948 7.26442 3.27914 
87 2 1.85959 10.5125 3.16552 
121 2 6.77059 9.78725 2.7714 
61 2 6.11377 8.00042 4.4656 
39 2 3.03012 12.8346 3.25195 
92 1 0.267692 10.4177 3.57903 
102 2 0.27724 10.5172 5.21431 
58 1 5.34452 11.7506 5.22433 
89 1 0.0400058 7.45804 2.59273 
137 2 6.50048 10.6263 5.19902 
132 2 3.19034 8.28311 5.11182 
90 2 2.34586 10.2454 6.71171 
80 1 3.61233 9.61214 5.93163 
67 1 0.965865 11.106 6.57429 
41 2 4.80879 9.5227 7.03058 
12 2 1.40049 12.6586 6.36193 
44 2 4.74767 12.4919 6.52497 
24 2 0.0278037 10.9786 7.87858 
120 2 5.38608 10.989 9.31882 
75 1 5.26714 9.5171 8.6117 
28 2 4.04562 8.80554 9.44016 
48 1 5.11904 12.4186 10.0701 
49 2 6.61564 13.0409 10.3354 
97 1 3.36774 7.9069 10.6049 
136 2 6.6353 8.69277 8.95465 
133 2 4.2314 0.178918 8.97429 
37 2 4.20695 7.97691 11.9988 
108 2 4.33162 12.5994 11.4994 
15 2 1.81905 8.27452 10.939 
25 1 12.3116 0.908716 0.456368 
109 2 8.52511 5.3891 1.36812 
11 1 7.12706 1.43254 0.501916 
99 2 7.05588 0.737269 1.97856 
135 2 11.1498 0.375673 1.48889 
74 2 7.59258 2.97024 0.722651 
63 1 8.52127 4.23088 0.233809 
126 2 9.02793 6.57672 3.78745 
51 2 6.81627 2.26926 4.14401 
88 2 8.77004 3.89825 3.56845 
84 1 8.14553 2.96971 4.76135 
17 1 8.33675 5.36365 2.9735 
122 2 6.74146 5.60988 3.31408 
5 2 10.8558 0.400169 4.12067 
93 1 12.9414 3.22304 5.13639 
81 2 11.4978 2.58627 5.50495 
43 2 11.151 0.407449 6.7722 
4 2 7.727 4.01414 5.92986 
103 2 7.94329 6.20626 7.28473 
129 2 9.05048 1.77793 5.4028 
22 1 10.5787 1.23751 5.47807 
7 1 6.85132 5.11644 6.76329 
144 2 0.293746 4.38276 6.19231 
2 1 9.28171 6.16329 8.24788 
76 2 7.96545 2.41955 8.83316 
13 1 9.45134 3.03035 9.14117 
23 2 9.35946 4.62257 8.78267 
106 2 10.7056 2.33463 8.35839 
86 1 11.8002 1.14682 8.10167 
6 2 11.7994 0.157052 9.38585 
30 2 7.70828 4.76205 11.9693 
111 2 12.0031 4.30047 11.4484 
57 1 10.9587 3.1106 11.8792 
98 2 11.6577 1.67705 12.2297 
123 2 8.08289 0.720566 12.4524 
35 2 9.85473 2.88237 10.7043 
85 1 0.00160535 5.51742 11.2043 
119 2 10.0409 3.68633 0.0411039 
145 2 11.3467 10.4755 0.835597 
141 2 8.86056 9.78029 0.560864 
18 1 10.0099 10.0447 1.68059 
147 2 10.0786 8.75715 2.65492 
53 2 9.85344 11.3894 2.62954 
105 2 8.56277 8.96092 4.67488 
150 2 12.4516 11.6931 3.05969 
82 1 9.77274 7.99401 4.06352 
47 1 7.04214 9.35101 4.33545 
66 2 10.9091 7.86413 5.19866 
8 1 11.0357 12.5063 2.82588 
46 2 12.7892 9.01925 2.97519 
143 2 11.9878 6.43567 3.09545 
91 1 11.6399 7.50082 6.59489 
29 2 11.6446 8.89043 7.43755 
64 2 10.6596 6.50656 7.45884 
134 2 0.127013 6.95737 6.47582 
69 2 10.7255 10.8563 9.10791 
27 1 7.47526 7.79687 10.0404 
130 2 8.87596 7.20745 9.44302 
26 1 10.7807 12.161 10.0894 
114 2 12.6682 9.20993 9.81248 
45 1 11.9828 9.98477 8.56158 
60 2 9.36693 12.9453 10.2158 
59 1 8.03311 12.8386 11.1207 
38 1 7.73336 9.91658 12.4564 
100 2 7.68822 8.68235 11.4 
3 2 11.3339 11.5933 11.5124 
107 2 8.02197 11.2862 11.6349 
73 1 12.3163 11.0921 12.7355 
1 2 12.5809 7.08561 11.343 
31 2 13.0376 12.5145 0.115924 
10 2 0.131416 9.80557 12.2471 
71 1 0.232179 8.56637 11.1791 
