ITEM: TIMESTEP
0
ITEM: NUMBER OF ATOMS
150
ITEM: BOX BOUNDS pp pp pp
-1.5269489729141435e-03 1.3040217181629661e+01
-1.5269489729141435e-03 1.3040217181629661e+01
-1.5269489729141435e-03 1.3040217181629661e+01
ITEM: ATOMS id type x y z 
70 2 2.18686 4.66801 1.97876 
128 2 4.00149 6.65968 1.60517 
40 1 4.5343 1.43454 3.13791 
32 1 2.05059 3.15802 2.54153 
50 1 2.51715 6.09656 1.29979 
101 2 4.30386 0.54887 1.76852 
95 2 1.49459 2.017 1.51042 
62 2 3.52198 2.67579 3.06567 
124 2 6.11186 1.81464 3.28824 
55 1 7.48546 1.2489 3.98234 
54 1 6.58279 6.60776 5.4368 
21 2 5.15535 6.63061 4.66783 
14 2 1.04563 3.17761 3.81477 
68 2 3.1813 6.64334 6.46154 
72 2 2.68771 4.87869 8.34143 
94 1 2.54835 1.35888 7.23912 
36 2 4.10074 1.35548 7.73075 
146 2 6.43055 5.88974 6.898 
19 1 1.9916 5.75999 7.14052 
20 1 5.53139 0.896705 8.35288 
113 2 6.64681 2.06913 8.50384 
79 2 1.38606 1.66625 8.37483 
42 2 2.27806 2.36175 5.99743 
127 2 3.95456 3.62683 10.6058 
33 1 2.99835 4.79683 9.94668 
116 2 6.52644 2.79299 10.9646 
112 2 1.47625 4.89606 10.5746 
131 2 7.26215 4.56098 9.19668 
56 2 3.78618 6.1681 10.3936 
52 1 7.42249 2.98194 9.61603 
139 2 4.73715 2.01158 12.6767 
117 2 5.61043 4.61195 12.5034 
77 1 5.0946 0.577501 0.349538 
110 2 2.30114 5.83979 12.7516 
16 1 6.85539 5.66072 12.6649 
9 2 6.67939 0.590324 0.780974 
149 2 7.04166 6.58576 11.3355 
140 2 6.52909 6.68021 0.856345 
34 1 5.12757 3.26137 11.7013 
83 1 6.46617 10.1271 2.36454 
65 1 5.17821 7.58336 0.987166 
104 2 5.48781 8.90806 1.87747 
138 2 5.53785 11.3062 3.03539 
148 2 1.47939 7.29367 1.67251 
142 2 7.38657 10.4604 1.0577 
96 1 3.76396 7.34654 5.11505 
78 1 4.46399 11.7729 4.16645 
118 2 5.18991 11.2467 5.61383 
125 2 7.04863 0.0507983 4.99994 
115 2 2.57124 7.37383 4.0308 
87 2 2.98636 11.1678 3.95708 
121 2 7.45903 9.67709 3.59539 
61 2 7.07999 8.15613 5.6372 
39 2 4.29685 0.336387 4.32788 
92 1 1.39719 10.7804 4.14551 
102 2 1.25965 10.6362 5.77058 
58 1 6.66767 11.9777 6.10647 
89 1 1.18466 7.76331 3.2088 
137 2 7.71108 10.7522 5.96642 
132 2 4.22649 8.85688 5.57928 
90 2 3.31632 10.5698 7.34829 
80 1 4.65194 9.99785 6.63999 
67 1 1.88713 11.3233 7.1033 
41 2 5.77835 9.74536 7.77625 
12 2 2.22189 12.8723 6.73984 
44 2 6.20969 12.734 7.45955 
24 2 0.957184 11.2257 8.41449 
120 2 5.9851 10.8253 10.2202 
75 1 6.1103 9.4407 9.35581 
28 2 4.92307 8.46329 9.87646 
48 1 5.90384 12.2906 10.9155 
49 2 7.45149 12.7822 11.1849 
97 1 4.02243 7.67449 10.9714 
136 2 7.50262 8.7144 9.80426 
133 2 5.25565 0.279544 9.83446 
37 2 4.70714 7.83478 12.4618 
108 2 5.04303 12.4109 12.2972 
15 2 2.54331 8.35403 11.0227 
25 1 0.284683 1.06002 0.963753 
109 2 8.94564 4.80615 2.51086 
11 1 8.18936 1.02744 1.21131 
99 2 8.38555 0.624262 2.77509 
135 2 12.3117 0.718254 2.21135 
74 2 8.28493 2.64227 1.15251 
63 1 9.05947 4.07256 1.07396 
126 2 10.0834 6.82321 3.8315 
51 2 8.22859 2.41707 4.80808 
88 2 9.93951 4.37119 4.9509 
84 1 9.20053 3.22211 5.84006 
17 1 9.23257 5.46534 3.95782 
122 2 7.79762 5.83574 4.67897 
5 2 11.5817 0.547365 4.79838 
93 1 1.04817 3.29442 5.4232 
81 2 12.738 2.60479 6.00063 
43 2 12.252 0.540581 7.41481 
4 2 8.32884 4.0066 6.9609 
103 2 8.78028 6.38747 7.98725 
129 2 10.216 2.12658 6.47408 
22 1 11.6401 1.40718 6.17118 
7 1 7.63239 5.24672 7.77153 
144 2 1.3525 4.75257 6.03663 
2 1 10.0408 6.36576 9.04493 
76 2 9.01377 2.64415 9.70366 
13 1 10.5428 3.25438 9.74351 
23 2 10.3738 4.77912 9.19238 
106 2 11.7904 2.50294 8.99679 
86 1 12.8766 1.29775 8.74585 
6 2 12.7054 0.309192 10.0222 
30 2 8.2717 4.92081 12.965 
111 2 12.9108 4.64279 12.6457 
57 1 11.7888 3.45342 12.7089 
98 2 12.5026 2.00273 12.9569 
123 2 9.18635 0.419295 0.0906797 
35 2 10.9872 3.38466 11.2982 
85 1 0.903419 5.65346 11.9054 
119 2 10.6257 3.77451 0.757263 
145 2 12.3038 10.5947 1.29775 
141 2 9.85135 9.72135 1.3594 
18 1 11.0811 10.2168 2.31243 
147 2 11.4229 9.13175 3.46102 
53 2 10.8385 11.6583 3.06858 
105 2 9.57781 8.93516 5.16068 
150 2 0.343611 11.9435 3.71715 
82 1 10.8972 8.03362 4.55901 
47 1 8.03406 9.38477 5.1182 
66 2 11.6152 7.52226 5.93119 
8 1 11.9776 12.7647 3.45823 
46 2 1.14272 9.38277 3.38476 
143 2 12.999 6.92527 3.77034 
91 1 12.3962 7.59761 7.34688 
29 2 12.5995 9.19467 7.61531 
64 2 11.3615 7.10109 8.50347 
134 2 0.767121 6.78517 7.52579 
69 2 11.5318 11.1018 9.34777 
27 1 8.13007 7.75087 10.9718 
130 2 9.47344 7.02375 10.4216 
26 1 11.5968 12.2573 10.4961 
114 2 0.241197 9.31041 10.103 
45 1 12.7914 10.2139 8.84619 
60 2 10.1534 12.9686 10.6927 
59 1 8.97612 12.6269 11.747 
38 1 8.69888 9.90732 0.226482 
100 2 8.34343 8.60707 12.3507 
3 2 12.0908 11.5532 11.8766 
107 2 9.12681 11.0639 12.2011 
73 1 0.110229 11.1506 0.0266087 
1 2 0.362309 7.18173 11.6933 
31 2 0.747187 12.6177 0.425756 
10 2 0.975641 9.88459 12.5062 
71 1 0.99111 8.67432 11.3974 
