ITEM: TIMESTEP
0
ITEM: NUMBER OF ATOMS
150
ITEM: BOX BOUNDS pp pp pp
-7.5842727452446468e-04 1.3025643878016563e+01
-7.5842727452446468e-04 1.3025643878016563e+01
-7.5842727452446468e-04 1.3025643878016563e+01
ITEM: ATOMS id type x y z 
70 2 2.11782 5.05377 1.94075 
128 2 4.04944 6.81979 1.26099 
40 1 4.15701 1.83148 2.98771 
32 1 1.73582 3.64396 2.62642 
50 1 2.49308 6.39053 1.12278 
101 2 3.98021 1.23525 1.46708 
95 2 1.18446 2.49063 1.60375 
62 2 3.10324 3.00919 3.2534 
124 2 5.71054 2.30754 3.13132 
55 1 7.1163 1.72688 3.71491 
54 1 6.56549 7.06795 5.23576 
21 2 5.19378 7.13472 4.38516 
14 2 0.604864 3.85279 3.76327 
68 2 2.90436 6.75029 5.75074 
72 2 2.52216 5.63763 8.04858 
94 1 2.25892 1.88458 7.05693 
36 2 3.87413 1.96652 7.3063 
146 2 6.31072 6.33087 6.66604 
19 1 1.72175 6.32222 6.78092 
20 1 5.3254 1.40519 7.80043 
113 2 6.4773 2.52493 8.07799 
79 2 1.18533 2.22901 8.27099 
42 2 1.74787 2.841 5.85385 
127 2 3.81062 4.2842 10.2525 
33 1 2.8292 5.45191 9.63653 
116 2 6.22459 3.11767 10.5857 
112 2 1.31712 5.46192 10.2879 
131 2 6.96043 4.96844 8.95811 
56 2 3.56658 6.82978 10.1387 
52 1 7.17524 3.3706 9.2867 
139 2 4.52386 2.92684 12.5139 
117 2 5.77361 5.28923 11.8564 
77 1 4.81224 1.42236 0.0787251 
110 2 2.16939 6.04117 12.5966 
16 1 6.99823 6.35053 12.0776 
9 2 6.38867 1.33621 0.545928 
149 2 7.30883 7.26125 10.7664 
140 2 6.51124 7.3028 0.285879 
34 1 5.00599 3.94195 11.3266 
83 1 6.22912 10.4523 2.04164 
65 1 5.05233 7.93032 0.646033 
104 2 5.28089 9.19719 1.62841 
138 2 5.22646 11.6134 2.62088 
148 2 1.56984 7.68333 1.52328 
142 2 7.15088 10.7737 0.734444 
96 1 3.78515 7.77617 4.87076 
78 1 4.25674 11.9922 3.86144 
118 2 5.08438 11.4647 5.25848 
125 2 6.8203 0.247617 4.34018 
115 2 2.87648 8.30845 3.65201 
87 2 2.8011 11.3101 3.84195 
121 2 7.20141 10.082 3.31637 
61 2 7.06275 8.60847 5.46244 
39 2 4.025 0.561537 4.01229 
92 1 1.20217 11.0535 4.11502 
102 2 1.13181 10.9704 5.7472 
58 1 6.52622 12.3333 5.6275 
89 1 1.33076 8.18915 3.06368 
137 2 7.66799 11.1878 5.63644 
132 2 4.19442 9.05509 5.83295 
90 2 3.27396 11.1531 7.18317 
80 1 4.58146 10.4504 6.53964 
67 1 1.75842 11.7527 7.03788 
41 2 5.75533 10.4699 7.65722 
12 2 1.95083 0.308339 6.70052 
44 2 5.99366 0.273034 6.81222 
24 2 0.81214 11.5279 8.32778 
120 2 5.82513 11.4223 10.194 
75 1 6.08525 10.1287 9.22808 
28 2 4.97489 9.02509 9.67951 
48 1 5.66974 13.0026 10.5679 
49 2 7.21339 0.512363 10.7885 
97 1 3.88141 8.33549 10.6592 
136 2 7.57742 9.55355 9.5233 
133 2 5.05436 0.675066 9.23474 
37 2 4.43178 8.34481 12.2027 
108 2 4.76197 0.35208 11.87 
15 2 2.4457 9.10725 10.6208 
25 1 0.0647052 1.50589 0.949048 
109 2 8.69729 5.38768 2.21341 
11 1 7.90593 1.82743 0.88232 
99 2 8.16105 1.59527 2.47519 
135 2 12.0691 0.977732 2.12964 
74 2 8.01359 3.41704 0.612723 
63 1 8.93162 4.75787 0.739687 
126 2 10.2132 6.87396 3.8287 
51 2 7.61623 2.66697 4.9279 
88 2 9.54174 4.33771 4.56186 
84 1 8.81742 3.42766 5.71919 
17 1 9.11363 5.69209 3.75198 
122 2 7.77637 6.2661 4.51494 
5 2 11.3602 0.782811 4.7484 
93 1 0.509454 3.82816 5.37344 
81 2 12.1864 3.04644 5.82308 
43 2 12.0289 1.02314 7.36248 
4 2 8.25064 4.47712 6.82146 
103 2 8.59493 6.84075 7.84562 
129 2 9.77663 2.26709 6.33616 
22 1 11.2844 1.71092 6.07867 
7 1 7.46704 5.69468 7.60276 
144 2 0.71163 5.19244 6.20452 
2 1 10.0305 6.87962 8.64945 
76 2 8.78248 3.16611 9.4631 
13 1 10.3046 3.7745 9.62683 
23 2 10.2124 5.35249 9.19711 
106 2 11.5418 3.05658 8.82643 
86 1 12.6599 1.87042 8.63684 
6 2 12.5437 0.91803 9.94807 
30 2 8.41455 5.68289 12.5309 
111 2 12.6895 5.10571 12.3271 
57 1 11.6027 3.90092 12.5549 
98 2 12.2863 2.46996 12.933 
123 2 8.86448 1.06783 12.85 
35 2 10.7293 3.70937 11.1933 
85 1 0.797527 6.09056 11.7022 
119 2 10.499 4.33977 0.642425 
145 2 12.2959 11.0606 1.12583 
141 2 9.73478 10.5061 0.96184 
18 1 11.004 10.5613 1.97621 
147 2 11.1663 9.12379 2.70038 
53 2 10.8212 11.7787 3.06558 
105 2 9.43218 9.27297 4.57015 
150 2 0.274064 12.3191 3.68868 
82 1 10.7547 8.38302 4.08901 
47 1 7.9279 9.81571 4.77809 
66 2 11.7931 8.4226 5.3228 
8 1 11.8356 13.0176 3.4127 
46 2 0.772362 9.69441 3.35489 
143 2 0.608558 7.00818 3.8523 
91 1 12.3054 8.2358 6.84638 
29 2 12.1245 9.71885 7.50831 
64 2 11.2467 7.28763 7.66795 
134 2 0.793638 7.64958 7.09248 
69 2 11.3676 11.6842 9.2753 
27 1 8.35132 8.50195 10.5053 
130 2 9.73303 7.93168 9.86534 
26 1 11.4126 12.863 10.3959 
114 2 12.9381 9.67691 9.96225 
45 1 12.5081 10.6656 8.74685 
60 2 9.97369 0.574894 10.4958 
59 1 8.69077 0.277083 11.4336 
38 1 8.5291 10.513 12.9042 
100 2 8.51626 9.17146 11.9854 
3 2 11.871 12.1603 11.7909 
107 2 8.72891 11.7241 11.8369 
73 1 0.0120624 11.7127 12.8628 
1 2 0.476316 7.69418 11.59 
31 2 0.658892 0.124428 0.287987 
10 2 0.864531 10.4884 12.2061 
71 1 0.908181 9.22255 11.1639 
