ITEM: TIMESTEP
0
ITEM: NUMBER OF ATOMS
150
ITEM: BOX BOUNDS pp pp pp
-4.0225735799879203e-03 1.3059059278193802e+01
-4.0225735799879203e-03 1.3059059278193802e+01
-4.0225735799879203e-03 1.3059059278193802e+01
ITEM: ATOMS id type x y z 
70 2 0.679938 3.25587 0.49664 
128 2 2.70225 5.01888 0.211546 
40 1 3.0095 0.176797 1.69769 
32 1 0.491941 1.98125 1.47658 
50 1 1.14805 4.67203 12.93 
101 2 2.97931 12.7386 0.133789 
95 2 12.7786 0.695164 0.818837 
62 2 1.95571 1.37564 1.88312 
124 2 4.54527 0.608355 2.04125 
55 1 5.92952 12.9888 2.56816 
54 1 5.3294 5.30864 3.78471 
21 2 3.85075 5.3785 3.13705 
14 2 12.775 2.49522 2.78993 
68 2 1.5156 5.08158 4.37704 
72 2 1.65031 4.35181 6.82122 
94 1 1.19582 0.243135 5.91209 
36 2 2.77357 0.224244 6.30035 
146 2 5.32631 4.6428 5.27524 
19 1 0.57888 4.78744 5.66521 
20 1 4.24021 12.7537 6.7461 
113 2 5.44118 0.793078 6.79814 
79 2 0.052881 0.535137 7.0617 
42 2 0.908577 1.38046 4.79629 
127 2 2.82129 2.70123 8.78545 
33 1 1.89479 3.98597 8.38077 
116 2 5.21089 1.49041 9.26226 
112 2 0.34979 3.93344 8.94922 
131 2 5.95778 3.28608 7.58063 
56 2 2.66179 5.23642 9.1061 
52 1 6.16104 1.69651 7.95421 
139 2 3.22587 1.15971 10.9372 
117 2 4.61624 3.50578 10.6704 
77 1 3.79591 12.9668 11.8096 
110 2 0.985363 4.48198 11.3252 
16 1 5.82843 4.51365 11.1013 
9 2 5.2912 0.389281 12.2935 
149 2 6.12437 5.65698 9.97601 
140 2 5.31099 5.21538 12.4878 
34 1 3.90424 2.23728 9.91755 
83 1 5.01903 8.66308 0.958831 
65 1 3.91966 5.99926 12.832 
104 2 4.25703 7.23137 0.777904 
138 2 3.91818 9.75368 1.4921 
148 2 0.196154 5.9468 0.264817 
142 2 5.76085 8.99498 12.6131 
96 1 2.4504 6.09164 3.53278 
78 1 2.94079 10.3023 2.66154 
118 2 3.73267 9.81509 4.10414 
125 2 5.5305 11.5794 3.28119 
115 2 1.50955 6.62045 2.33405 
87 2 1.46039 9.67326 2.67769 
121 2 6.14708 8.57688 2.15158 
61 2 5.84776 6.84885 4.00033 
39 2 2.76732 11.9132 2.63362 
92 1 12.9096 9.44449 2.87709 
102 2 12.7687 9.49647 4.51126 
58 1 5.17963 10.616 4.52827 
89 1 13.0054 6.54981 1.77449 
137 2 6.26838 9.43424 4.60495 
132 2 2.85885 7.36857 4.5059 
90 2 1.88766 9.44801 5.90262 
80 1 3.20626 8.71877 5.32125 
67 1 0.458435 10.2332 5.75998 
41 2 4.30803 8.63033 6.51257 
12 2 0.820632 11.7854 5.39344 
44 2 4.73505 11.5239 5.78146 
24 2 12.7 10.115 7.14797 
120 2 5.01418 9.84635 8.88128 
75 1 4.87076 8.44154 8.04898 
28 2 3.76042 7.59153 8.88388 
48 1 4.84049 11.366 9.44754 
49 2 6.34018 11.9858 9.66062 
97 1 2.82999 6.67698 9.84675 
136 2 6.27372 7.62412 8.1895 
133 2 4.07434 12.1473 8.24589 
37 2 3.44595 6.57376 11.3555 
108 2 4.04688 11.6671 10.8467 
15 2 1.32786 7.29287 9.93761 
25 1 11.8275 12.7703 12.9988 
109 2 8.18608 4.33088 0.872117 
11 1 6.79028 0.521666 12.9232 
99 2 6.83054 12.7193 1.23958 
135 2 10.5656 12.2815 0.875649 
74 2 7.1681 2.04387 0.241126 
63 1 8.10119 3.2601 12.7233 
126 2 8.86822 5.35536 3.21514 
51 2 6.64456 0.882437 3.65016 
88 2 8.38199 2.73307 3.07762 
84 1 7.80669 1.81112 4.30593 
17 1 8.00145 4.20736 2.47876 
122 2 6.43668 4.51584 2.89005 
5 2 10.1889 12.1592 3.54819 
93 1 12.6453 2.26612 4.37452 
81 2 11.3938 1.25262 4.60154 
43 2 10.9173 12.3883 6.17243 
4 2 7.2429 2.87205 5.40002 
103 2 7.60644 5.144 6.64691 
129 2 8.8712 0.812492 5.01528 
22 1 10.3022 0.0650137 4.84647 
7 1 6.47758 4.04909 6.24368 
144 2 12.6296 3.55606 5.34741 
2 1 8.92654 5.21659 7.62887 
76 2 7.76136 1.46714 8.13825 
13 1 9.26545 2.07111 8.4053 
23 2 9.14851 3.68313 8.14981 
106 2 10.4984 1.42697 7.54263 
86 1 11.5656 0.189296 7.42626 
6 2 11.4706 12.3904 8.79705 
30 2 7.2585 3.7871 11.4228 
111 2 11.7012 3.25612 10.8889 
57 1 10.6205 2.07424 11.2713 
98 2 11.287 0.669397 11.7871 
123 2 7.75478 13.0551 11.7355 
35 2 9.70886 1.81883 9.94697 
85 1 12.7265 4.40407 10.3528 
119 2 9.57184 2.67391 12.3706 
145 2 10.8272 9.3156 13.0489 
141 2 8.3129 8.59476 13.0171 
18 1 9.6025 8.78834 0.924546 
147 2 9.85557 7.43184 1.77327 
53 2 9.43784 10.0688 1.95374 
105 2 8.28074 7.81658 3.71488 
150 2 11.9687 10.6626 2.35134 
82 1 9.54481 6.83158 3.25815 
47 1 6.71779 8.18685 3.65066 
66 2 10.6606 6.89556 4.41504 
8 1 10.4654 11.3167 2.1914 
46 2 12.5318 8.08891 2.07651 
143 2 12.1363 5.47782 2.57118 
91 1 11.2118 6.67655 5.91698 
29 2 11.0933 8.14136 6.60455 
64 2 10.2201 5.71446 6.79401 
134 2 12.7452 6.11003 6.01317 
69 2 10.314 10.0972 8.2942 
27 1 7.07742 6.86371 9.39621 
130 2 8.46435 6.20593 8.84711 
26 1 10.454 11.2798 9.40371 
114 2 12.1011 8.25925 8.98346 
45 1 11.52 9.16218 7.76168 
60 2 9.022 11.9558 9.68008 
59 1 7.68747 11.9234 10.5735 
38 1 7.22259 8.9778 11.8722 
100 2 7.25768 7.92807 10.6256 
3 2 11.0281 10.5384 10.7262 
107 2 7.56523 10.4763 11.3346 
73 1 11.8921 9.93267 11.9838 
1 2 12.2051 5.96584 10.3296 
31 2 12.5346 11.3385 12.5691 
10 2 12.7147 8.62355 11.4519 
71 1 12.8054 7.50498 10.2485 
