ITEM: TIMESTEP
0
ITEM: NUMBER OF ATOMS
150
ITEM: BOX BOUNDS pp pp pp
-7.8179573919484266e-04 1.3069173224291623e+01
-7.8179573919484266e-04 1.3069173224291623e+01
-7.8179573919484266e-04 1.3069173224291623e+01
ITEM: ATOMS id type x y z 
70 2 0.641883 3.42274 0.683054 
128 2 2.62764 5.22817 0.427306 
40 1 3.00003 0.332967 1.87943 
32 1 0.485891 2.10747 1.61078 
50 1 1.07176 4.87285 0.106162 
101 2 2.96456 12.8383 0.336951 
95 2 12.8447 0.809442 0.902624 
62 2 1.96099 1.54827 2.033 
124 2 4.53201 0.791627 2.19118 
55 1 5.91337 0.159956 2.78194 
54 1 5.33233 5.46854 3.95919 
21 2 3.85647 5.5303 3.30643 
14 2 12.7242 2.54582 2.92012 
68 2 1.57439 5.11731 4.5892 
72 2 1.58031 4.45205 7.05574 
94 1 1.14738 0.419512 6.19358 
36 2 2.71304 0.588774 6.59791 
146 2 5.32742 4.81196 5.45506 
19 1 0.565668 4.83771 5.82811 
20 1 4.15954 12.9961 6.92855 
113 2 5.40829 0.975797 6.97319 
79 2 13.0047 0.731556 7.26162 
42 2 0.76701 1.35165 4.92426 
127 2 2.74443 2.84258 9.07369 
33 1 1.84248 4.12949 8.62369 
116 2 5.127 1.6274 9.44 
112 2 0.303236 4.09276 9.20558 
131 2 5.86491 3.47523 7.79989 
56 2 2.64794 5.37762 9.31619 
52 1 6.08635 1.88196 8.15016 
139 2 3.25178 1.31281 11.2214 
117 2 4.63348 3.65232 10.8791 
77 1 3.78802 13.0636 12.0223 
110 2 0.916868 4.7203 11.5662 
16 1 5.79747 4.72631 11.2835 
9 2 5.30921 0.384432 12.5104 
149 2 6.08525 5.83021 10.1177 
140 2 5.21859 5.47248 12.6211 
34 1 3.87086 2.39025 10.1656 
83 1 4.93725 8.83635 1.15199 
65 1 3.81663 6.21874 13.0081 
104 2 4.14325 7.42409 0.981688 
138 2 3.85973 9.9518 1.68161 
148 2 0.0894316 6.10373 0.561103 
142 2 5.68904 9.10864 12.8071 
96 1 2.44461 6.1876 3.74739 
78 1 2.85758 10.4862 2.83796 
118 2 3.63209 9.97701 4.28755 
125 2 5.49849 11.8077 3.46905 
115 2 1.4408 6.72935 2.60886 
87 2 1.36666 9.88569 2.80808 
121 2 6.06736 8.75794 2.34056 
61 2 5.85274 7.01071 4.17659 
39 2 2.74505 12.1039 2.8522 
92 1 12.8438 9.62115 3.12837 
102 2 12.8068 9.75242 4.76334 
58 1 5.06094 10.8417 4.68906 
89 1 12.9294 6.66708 2.09375 
137 2 6.14523 9.64921 4.78187 
132 2 2.85525 7.47299 4.7111 
90 2 1.87053 9.48258 6.1771 
80 1 3.19084 8.83426 5.51135 
67 1 0.493335 10.355 6.0805 
41 2 4.31094 8.76668 6.68549 
12 2 0.947131 11.9001 5.82296 
44 2 4.55331 11.785 5.89448 
24 2 12.6971 10.2368 7.44185 
120 2 4.99238 10.0055 9.04634 
75 1 4.8504 8.59184 8.22918 
28 2 3.73543 7.74997 9.07229 
48 1 4.80101 11.5252 9.61077 
49 2 6.29043 12.1485 9.88373 
97 1 2.75801 6.85038 10.0066 
136 2 6.26016 7.78476 8.34421 
133 2 4.04913 12.2993 8.39472 
37 2 3.29766 6.80136 11.5497 
108 2 3.96922 11.8036 10.9943 
15 2 1.22871 7.41211 9.99535 
25 1 11.8473 12.8994 0.0630499 
109 2 8.2102 4.43774 1.09103 
11 1 6.79456 0.665685 0.0584839 
99 2 6.89095 12.9845 1.50156 
135 2 10.5926 12.4529 1.03154 
74 2 7.07503 2.23063 0.342983 
63 1 8.06994 3.42946 12.9016 
126 2 8.74572 5.61243 3.41026 
51 2 6.547 1.16025 3.87643 
88 2 8.38564 2.93586 3.36531 
84 1 7.75405 2.00796 4.56374 
17 1 7.98911 4.37535 2.69466 
122 2 6.4041 4.64 3.05719 
5 2 10.0348 12.3181 3.67399 
93 1 12.5647 2.3167 4.5023 
81 2 11.238 1.40506 4.71861 
43 2 10.8763 12.5194 6.27647 
4 2 7.24785 3.05857 5.69325 
103 2 7.55469 5.343 6.90148 
129 2 8.74748 0.909244 5.22785 
22 1 10.1825 0.190398 4.98786 
7 1 6.43595 4.24368 6.48615 
144 2 12.6485 3.59106 5.4938 
2 1 8.91397 5.39519 7.83268 
76 2 7.68091 1.66863 8.38187 
13 1 9.20801 2.235 8.57899 
23 2 9.1334 3.85126 8.32766 
106 2 10.3667 1.53674 7.66081 
86 1 11.4559 0.31886 7.55943 
6 2 11.3468 12.5007 8.91075 
30 2 7.25182 4.06291 11.6359 
111 2 11.6792 3.38851 11.144 
57 1 10.5892 2.19498 11.4542 
98 2 11.2739 0.789729 11.9363 
123 2 7.7752 0.138602 11.9478 
35 2 9.71752 1.96875 10.0982 
85 1 12.6706 4.55774 10.6001 
119 2 9.50973 2.77464 12.5351 
145 2 10.8051 9.42687 0.121239 
141 2 8.26984 8.68798 0.0812695 
18 1 9.55043 8.94574 1.04598 
147 2 9.79588 7.63518 1.96496 
53 2 9.32414 10.272 1.99945 
105 2 8.22455 8.11195 3.90721 
150 2 11.8345 10.7716 2.57732 
82 1 9.44122 7.08009 3.45448 
47 1 6.64333 8.40428 3.84583 
66 2 10.5774 7.08036 4.58715 
8 1 10.369 11.483 2.32599 
46 2 12.4666 8.2021 2.43991 
143 2 12.1122 5.55452 2.89271 
91 1 11.203 6.79526 6.04818 
29 2 11.1839 8.26864 6.73095 
64 2 10.1895 5.88833 6.96539 
134 2 12.709 6.1595 6.09732 
69 2 10.2269 10.1963 8.40636 
27 1 7.05677 7.03036 9.55658 
130 2 8.46931 6.38419 9.05971 
26 1 10.3795 11.359 9.53921 
114 2 11.9527 8.34903 9.18156 
45 1 11.471 9.27453 7.93959 
60 2 8.9537 12.0119 9.88964 
59 1 7.63324 12.0625 10.8035 
38 1 7.14347 9.10995 12.0585 
100 2 7.18875 8.10548 10.7801 
3 2 11.015 10.6189 10.8383 
107 2 7.46617 10.6347 11.5887 
73 1 11.8693 10.039 12.1176 
1 2 12.1076 6.10025 10.5563 
31 2 12.5048 11.447 12.7001 
10 2 12.7152 8.73686 11.6091 
71 1 12.733 7.61729 10.4063 
