ITEM: TIMESTEP
0
ITEM: NUMBER OF ATOMS
150
ITEM: BOX BOUNDS pp pp pp
6.5922604767139616e-05 1.3069772920172277e+01
6.5922604767139616e-05 1.3069772920172277e+01
6.5922604767139616e-05 1.3069772920172277e+01
ITEM: ATOMS id type x y z 
70 2 1.77582 4.07324 1.43722 
128 2 3.67387 5.93607 0.978687 
40 1 3.92735 0.870881 2.57227 
32 1 1.49615 2.70243 2.2431 
50 1 2.12824 5.49784 0.76684 
101 2 3.76767 0.277748 1.04846 
95 2 0.823828 1.49058 1.37426 
62 2 2.90651 2.09059 2.79007 
124 2 5.49334 1.29144 2.761 
55 1 6.87711 0.63935 3.33056 
54 1 6.18662 6.10858 4.93334 
21 2 4.80222 6.14776 4.10025 
14 2 0.4869 3.01706 3.46365 
68 2 2.5066 5.75094 5.41006 
72 2 2.10786 4.7175 7.73454 
94 1 2.018 1.07234 6.82317 
36 2 3.62767 1.14505 7.10488 
146 2 5.96521 5.36909 6.36688 
19 1 1.31469 5.37917 6.4549 
20 1 5.05467 0.463017 7.5035 
113 2 6.281 1.4978 7.80721 
79 2 0.875187 1.3503 7.99245 
42 2 1.58697 2.06423 5.61713 
127 2 3.39982 3.43593 9.92924 
33 1 2.42647 4.61391 9.32351 
116 2 5.85657 2.23285 10.2355 
112 2 0.922566 4.69149 9.99326 
131 2 6.72212 3.99388 8.59387 
56 2 3.19823 5.99711 9.75111 
52 1 6.91657 2.41206 9.00684 
139 2 4.13086 1.96495 12.1005 
117 2 5.36169 4.37817 11.5263 
77 1 4.56313 0.50583 12.7143 
110 2 1.86803 5.28632 12.2466 
16 1 6.60562 5.41026 11.7758 
9 2 6.14564 0.593709 0.0829478 
149 2 6.95766 6.35844 10.5012 
140 2 6.14654 6.34451 13.0368 
34 1 4.61036 3.03419 10.9592 
83 1 5.88206 9.53497 1.70738 
65 1 4.69953 7.00289 0.324437 
104 2 4.93927 8.27428 1.29692 
138 2 4.86436 10.6901 2.26728 
148 2 1.15414 6.72398 1.24724 
142 2 6.78426 9.85596 0.388459 
96 1 3.38507 6.79851 4.54845 
78 1 3.87765 11.0788 3.49048 
118 2 4.67184 10.5354 4.89956 
125 2 6.48687 12.272 3.98908 
115 2 2.46917 7.36359 3.34926 
87 2 2.4052 10.4318 3.46438 
121 2 6.83338 9.17779 3.00171 
61 2 6.68047 7.65328 5.12971 
39 2 3.7079 12.6863 3.6034 
92 1 0.792605 10.2156 3.71113 
102 2 0.679724 10.321 5.34218 
58 1 6.10942 11.3888 5.29179 
89 1 0.914049 7.27226 2.77668 
137 2 7.23029 10.228 5.37089 
132 2 3.79523 8.10085 5.4863 
90 2 2.8336 10.2317 6.76613 
80 1 4.15437 9.51461 6.17287 
67 1 1.39448 10.9992 6.64473 
41 2 5.31304 9.56762 7.30902 
12 2 1.72852 12.5742 6.40033 
44 2 5.58858 12.408 6.43347 
24 2 0.466981 10.7905 7.95007 
120 2 5.7128 10.5037 9.84138 
75 1 5.78531 9.20809 8.83914 
28 2 4.67199 8.16334 9.40729 
48 1 5.47798 12.0746 10.2171 
49 2 6.97933 12.7304 10.3932 
97 1 3.56593 7.45761 10.36 
136 2 7.25208 8.52457 8.9947 
133 2 4.7854 12.73 8.89981 
37 2 4.09755 7.38919 11.9089 
108 2 4.59216 12.4372 11.539 
15 2 2.16816 8.29449 10.3652 
25 1 12.6715 0.656306 0.695337 
109 2 8.48391 4.79837 1.87539 
11 1 7.65416 1.00006 0.552148 
99 2 7.87398 0.427973 2.06217 
135 2 11.5876 0.153085 1.82936 
74 2 7.78438 2.60564 0.641251 
63 1 8.63347 3.98693 0.484594 
126 2 9.89275 6.03031 3.72132 
51 2 7.46597 1.56501 4.51448 
88 2 9.21254 3.43418 4.14221 
84 1 8.57415 2.45971 5.30305 
17 1 8.80186 4.86752 3.46615 
122 2 7.40624 5.32426 4.20278 
5 2 11.0367 12.7892 4.44255 
93 1 0.284128 2.90962 5.05518 
81 2 12.0686 1.9632 5.35145 
43 2 11.7832 0.107782 7.06029 
4 2 7.91103 3.47679 6.38985 
103 2 8.29715 5.85305 7.41971 
129 2 9.61593 1.40262 5.97249 
22 1 11.075 0.722619 5.72089 
7 1 7.17367 4.69617 7.20837 
144 2 0.262572 4.25615 5.93952 
2 1 9.70382 5.93872 8.26247 
76 2 8.52127 2.25791 9.27373 
13 1 10.0525 2.87841 9.35662 
23 2 9.93967 4.4053 8.77421 
106 2 11.2792 2.10035 8.59387 
86 1 12.4046 0.931248 8.35501 
6 2 12.3067 13.0154 9.64698 
30 2 7.99477 4.68866 12.2295 
111 2 12.4112 4.38127 12.0913 
57 1 11.3296 3.16887 12.3092 
98 2 11.9753 1.73905 12.7603 
123 2 8.61084 0.454509 12.4342 
35 2 10.5133 2.95146 10.9143 
85 1 0.457194 5.35022 11.4132 
119 2 10.205 3.62413 0.319409 
145 2 11.9153 10.0896 0.729598 
141 2 9.36041 9.50333 0.569371 
18 1 10.6186 9.6223 1.59189 
147 2 10.7913 8.24015 2.41566 
53 2 10.4247 10.8942 2.61873 
105 2 9.05551 8.42791 4.28657 
150 2 12.933 11.4338 3.15782 
82 1 10.4038 7.56588 3.8451 
47 1 7.52463 8.88946 4.47625 
66 2 11.481 7.6934 5.03572 
8 1 11.4371 12.1137 3.01992 
46 2 0.387785 8.79749 3.04455 
143 2 0.185213 6.12611 3.61202 
91 1 12.0061 7.37852 6.53516 
29 2 11.9201 8.83338 7.2609 
64 2 10.9125 6.43832 7.31517 
134 2 0.431696 6.73563 6.74573 
69 2 11.0572 10.8269 8.8968 
27 1 7.98457 7.57936 10.1111 
130 2 9.35743 6.93376 9.51744 
26 1 11.1359 11.9597 10.0564 
114 2 12.7532 8.97714 9.69455 
45 1 12.2732 9.87007 8.42624 
60 2 9.71962 12.7273 10.1741 
59 1 8.42613 12.5696 11.1275 
38 1 8.15254 9.6792 12.5653 
100 2 8.11053 8.4562 11.4874 
3 2 11.5544 11.2099 11.4374 
107 2 8.39306 11.0449 11.715 
73 1 12.6804 10.8447 12.581 
1 2 0.150579 6.95764 11.3252 
31 2 0.108564 12.3213 0.0114939 
10 2 0.615103 9.71966 11.9643 
71 1 0.640118 8.47051 10.9046 
