ITEM: TIMESTEP
0
ITEM: NUMBER OF ATOMS
150
ITEM: BOX BOUNDS pp pp pp
9.2970549894479740e-03 1.3022168623596153e+01
9.2970549894479740e-03 1.3022168623596153e+01
9.2970549894479740e-03 1.3022168623596153e+01
ITEM: ATOMS id type x y z 
70 2 1.67269 4.65579 2.31003 
128 2 3.64119 6.41071 1.92429 
40 1 4.01335 1.35238 3.33438 
32 1 1.55344 3.11706 2.78732 
50 1 2.10675 6.03472 1.58799 
101 2 3.78217 0.511476 1.93706 
95 2 1.0333 2.02446 1.68685 
62 2 3.0155 2.61121 3.32451 
124 2 5.59838 1.70637 3.50864 
55 1 6.96057 1.07127 4.16657 
54 1 6.07114 6.44275 5.56475 
21 2 4.63579 6.44617 4.8074 
14 2 0.525861 3.05556 4.04246 
68 2 2.78075 6.67338 6.69552 
72 2 2.28716 4.88485 8.54336 
94 1 2.17209 1.31631 7.50394 
36 2 3.74613 1.5361 7.85123 
146 2 5.90156 5.75024 7.03896 
19 1 1.60514 5.73635 7.31708 
20 1 5.05358 0.861283 8.53269 
113 2 6.27687 1.89796 8.74835 
79 2 1.03971 1.60809 8.67354 
42 2 1.70394 2.17848 6.21457 
127 2 3.6248 3.57128 10.7204 
33 1 2.63961 4.75206 10.1368 
116 2 6.17186 2.70669 11.1847 
112 2 1.13476 4.78252 10.8112 
131 2 6.77702 4.43403 9.35782 
56 2 3.36528 6.13391 10.6528 
52 1 7.03515 2.87258 9.80979 
139 2 4.26172 1.95804 12.8143 
117 2 5.19385 4.51553 12.6939 
77 1 4.57795 0.522742 0.522182 
110 2 1.88992 5.73671 13.0184 
16 1 6.48492 5.50252 12.878 
9 2 6.16387 0.553132 0.934516 
149 2 6.69881 6.4457 11.5627 
140 2 6.16746 6.49081 1.12862 
34 1 4.74489 3.18114 11.8567 
83 1 5.97269 9.97603 2.58848 
65 1 4.79982 7.35587 1.31305 
104 2 5.04732 8.67678 2.22617 
138 2 5.01891 11.1346 3.25874 
148 2 1.20086 7.36117 1.87516 
142 2 6.75452 10.2986 1.188 
96 1 3.28537 7.23718 5.25199 
78 1 3.93886 11.6136 4.3798 
118 2 4.64726 11.1269 5.84758 
125 2 6.51964 12.9372 5.24047 
115 2 1.99144 7.23577 4.28439 
87 2 2.4666 10.9903 4.18814 
121 2 7.05361 9.61645 3.77668 
61 2 6.59252 7.98995 5.72748 
39 2 3.76611 0.210318 4.48157 
92 1 0.852756 10.7264 4.39412 
102 2 0.718612 10.7642 6.02739 
58 1 6.12445 11.8317 6.3491 
89 1 0.657733 7.68408 3.3927 
137 2 7.14348 10.5833 6.21717 
132 2 3.81902 8.74566 5.63158 
90 2 2.77528 10.2494 7.52675 
80 1 4.1514 9.80468 6.80717 
67 1 1.46893 11.2216 7.39532 
41 2 5.25444 9.53733 7.96604 
12 2 2.04349 12.7283 7.18132 
44 2 5.65335 12.5966 7.69124 
24 2 0.56246 11.1691 8.72781 
120 2 5.49443 10.8132 10.3088 
75 1 5.62455 9.36196 9.56049 
28 2 4.46848 8.43164 10.2145 
48 1 5.3386 12.2623 11.0242 
49 2 6.86582 12.8418 11.2481 
97 1 3.59371 7.61357 11.3059 
136 2 7.01692 8.64389 10.0312 
133 2 4.60633 0.266089 9.98232 
37 2 4.30754 7.68012 12.784 
108 2 4.52829 12.3287 12.4381 
15 2 2.13907 8.32705 11.4347 
25 1 12.8809 1.02444 1.12368 
109 2 8.51763 4.64233 2.74301 
11 1 7.69832 0.829566 1.40335 
99 2 7.77036 0.34308 2.95263 
135 2 11.8129 0.702424 2.33405 
74 2 7.9629 2.4224 1.42708 
63 1 8.67353 3.88116 1.32565 
126 2 9.54342 6.71479 4.12387 
51 2 7.81267 2.19724 4.94945 
88 2 9.44444 4.21653 5.21074 
84 1 8.68749 3.03037 6.04347 
17 1 8.76464 5.30833 4.1942 
122 2 7.29215 5.64358 4.8534 
5 2 11.2271 0.677286 4.98283 
93 1 0.597269 3.25341 5.6426 
81 2 12.2082 2.76012 6.30379 
43 2 11.9246 0.55723 7.59131 
4 2 7.73984 3.81187 7.10629 
103 2 8.25318 6.23243 8.0852 
129 2 9.72773 1.99633 6.74449 
22 1 11.2257 1.45664 6.41314 
7 1 7.09787 5.09079 7.90701 
144 2 1.08968 4.70267 6.16397 
2 1 9.56746 6.31733 9.07129 
76 2 8.63843 2.60799 9.85024 
13 1 10.152 3.24795 9.90064 
23 2 9.96841 4.75284 9.30233 
106 2 11.4101 2.48511 9.1889 
86 1 12.4839 1.2593 8.98506 
6 2 12.1874 0.267827 10.2344 
30 2 7.85828 4.67879 0.152613 
111 2 12.4829 4.54698 12.8455 
57 1 11.3616 3.36452 12.8768 
98 2 12.0708 1.90349 0.0178933 
123 2 8.64304 0.170121 0.266487 
35 2 10.5527 3.37763 11.4688 
85 1 0.527353 5.54114 12.1255 
119 2 10.2474 3.62635 1.01364 
145 2 11.7959 10.6567 1.55261 
141 2 9.28932 9.98049 1.42518 
18 1 10.4963 10.3086 2.46957 
147 2 10.7094 9.06796 3.47995 
53 2 10.3611 11.6882 3.3586 
105 2 9.09558 8.86406 5.42606 
150 2 12.9272 11.9529 3.8766 
82 1 10.3547 8.01473 4.67242 
47 1 7.53927 9.26566 5.32114 
66 2 11.3798 7.68858 5.8939 
8 1 11.5275 12.8006 3.65376 
46 2 0.520937 9.27636 3.75166 
143 2 12.3895 6.76662 3.60643 
91 1 11.9869 7.61532 7.39355 
29 2 12.2346 9.16175 7.83367 
64 2 10.8184 7.06354 8.38855 
134 2 0.334498 6.72782 7.63553 
69 2 11.0869 10.9923 9.56838 
27 1 7.72026 7.65479 11.1378 
130 2 9.04992 7.01049 10.4554 
26 1 11.0683 12.1863 10.6798 
114 2 12.8665 9.18749 10.3409 
45 1 12.3782 10.1266 9.1126 
60 2 9.59775 12.8537 10.8144 
59 1 8.36538 12.5282 11.8067 
38 1 8.09497 9.86943 0.330122 
100 2 7.95664 8.45288 12.551 
3 2 11.5285 11.5182 12.0921 
107 2 8.33738 10.931 12.1315 
73 1 12.6251 11.1338 0.244007 
1 2 12.9777 7.0602 11.9011 
31 2 0.346299 12.5629 0.589003 
10 2 0.420091 9.81482 12.7538 
71 1 0.551845 8.58359 11.6855 
