ITEM: TIMESTEP
0
ITEM: NUMBER OF ATOMS
150
ITEM: BOX BOUNDS pp pp pp
0.0000000000000000e+00 1.3022945184823708e+01
0.0000000000000000e+00 1.3022945184823708e+01
0.0000000000000000e+00 1.3022945184823708e+01
ITEM: ATOMS id type x y z 
70 2 1.81472 5.19957 2.70433 
128 2 3.9101 6.83199 2.00852 
40 1 3.70454 1.82102 3.62333 
32 1 1.36165 3.79443 3.36626 
50 1 2.32142 6.51272 1.912 
101 2 3.57921 1.26743 2.08407 
95 2 0.674194 2.63191 2.4348 
62 2 2.72886 3.06198 3.88576 
124 2 5.26331 2.23779 3.86728 
55 1 6.65542 1.65566 4.47115 
54 1 5.92089 7.04942 5.72856 
21 2 4.43648 7.24258 5.10664 
14 2 0.378311 4.07424 4.61159 
68 2 2.50486 6.72364 6.88626 
72 2 2.11757 5.2788 8.92343 
94 1 1.92763 1.78243 7.69662 
36 2 3.542 1.64198 7.95401 
146 2 5.83086 6.30754 7.17961 
19 1 1.29304 6.17339 7.82069 
20 1 5.03977 1.33453 8.55291 
113 2 6.17265 2.48855 8.79305 
79 2 0.830116 2.12151 8.89933 
42 2 1.64349 2.94624 6.60628 
127 2 3.58447 4.55861 11.2094 
33 1 2.57378 5.58856 10.4464 
116 2 6.01117 3.26467 11.2859 
112 2 1.08368 5.90764 11.0903 
131 2 6.49647 4.97865 9.47623 
56 2 3.3727 7.0129 10.4912 
52 1 6.88041 3.44513 9.92035 
139 2 4.2842 2.90108 0.143578 
117 2 5.64384 5.30197 12.7641 
77 1 4.51955 1.40896 0.766485 
110 2 1.92936 6.22647 0.361016 
16 1 6.85859 6.40199 12.7618 
9 2 6.07424 1.38457 1.30269 
149 2 7.10538 7.12351 11.3226 
140 2 6.32497 7.48493 0.839229 
34 1 4.83267 4.03459 12.1322 
83 1 5.97396 10.4696 2.65891 
65 1 4.81021 7.94654 1.24138 
104 2 4.98457 9.26033 2.17972 
138 2 4.92638 11.5562 3.34966 
148 2 1.47041 7.84706 2.30743 
142 2 6.89929 10.7723 1.33234 
96 1 3.06759 7.78201 5.80676 
78 1 3.83896 11.945 4.49951 
118 2 4.547 11.5362 5.99908 
125 2 6.34047 0.187644 5.10383 
115 2 1.82521 8.03479 4.81239 
87 2 2.41016 11.1865 4.44039 
121 2 6.97962 10.051 3.90095 
61 2 6.56343 8.53829 5.94941 
39 2 3.49264 0.505242 4.57174 
92 1 0.777748 11.0644 4.61597 
102 2 0.560038 10.9954 6.2399 
58 1 6.07062 12.2438 6.37988 
89 1 0.625911 8.16516 3.68427 
137 2 7.16195 11.0624 6.31913 
132 2 3.50817 9.17061 6.56493 
90 2 2.59859 11.2599 7.85873 
80 1 3.92363 10.5653 7.25359 
67 1 1.06418 11.7836 7.57794 
41 2 5.13112 10.5249 8.3302 
12 2 1.32068 0.3312 7.19141 
44 2 5.75327 0.159241 7.65426 
24 2 0.0842889 11.4539 8.82116 
120 2 5.79668 11.5589 10.7732 
75 1 5.68431 10.2264 9.84332 
28 2 4.4899 9.37828 10.5386 
48 1 5.47532 0.0361923 11.3169 
49 2 6.96226 0.65756 11.6253 
97 1 3.46392 8.4114 11.3142 
136 2 7.06583 9.37993 9.93296 
133 2 4.7639 0.767813 10.056 
37 2 4.03599 8.21442 12.8368 
108 2 4.52951 0.261555 12.6269 
15 2 1.95611 9.01026 11.3183 
25 1 12.6405 1.60653 1.72728 
109 2 8.3302 5.52423 2.7492 
11 1 7.61301 1.80284 1.66303 
99 2 7.74648 1.57714 3.27015 
135 2 11.5357 1.12369 2.8478 
74 2 7.87623 3.36089 1.29786 
63 1 8.72517 4.75265 1.38685 
126 2 9.60373 6.91797 4.70161 
51 2 7.16324 2.56588 5.69905 
88 2 8.93339 4.34518 5.03901 
84 1 8.40921 3.42818 6.28489 
17 1 8.52901 5.76358 4.33448 
122 2 7.05338 6.21792 4.90761 
5 2 11.0018 0.586994 5.44415 
93 1 0.298217 3.79579 6.19002 
81 2 12.0828 2.79268 6.48072 
43 2 11.5124 0.979979 8.1045 
4 2 7.83178 4.49164 7.36776 
103 2 8.14077 6.79627 8.42144 
129 2 9.53087 2.38106 6.81972 
22 1 10.9668 1.61934 6.70213 
7 1 6.99327 5.69293 8.11633 
144 2 0.285266 5.13426 7.08399 
2 1 9.62421 6.8574 9.11225 
76 2 8.50372 3.34036 10.0928 
13 1 10.0505 3.88375 10.3221 
23 2 9.96504 5.44241 9.83784 
106 2 11.2774 3.08849 9.56346 
86 1 12.2922 1.82444 9.2984 
6 2 12.2201 0.833678 10.5828 
30 2 8.26179 5.69431 0.144834 
111 2 12.4851 5.18836 0.0442139 
57 1 11.3702 4.00631 0.227716 
98 2 11.9799 2.52954 0.55623 
123 2 8.57167 0.914399 0.707672 
35 2 10.466 3.87918 11.896 
85 1 0.512674 6.32332 12.5636 
119 2 10.3055 4.39978 1.39333 
145 2 11.9625 10.8514 1.64092 
141 2 9.44759 10.276 1.43626 
18 1 10.6584 10.4221 2.51842 
147 2 10.6363 9.10375 3.45052 
53 2 10.4937 11.7465 3.49956 
105 2 9.09907 9.28237 5.48207 
150 2 12.958 12.3768 4.13484 
82 1 10.3781 8.34777 4.87187 
47 1 7.5481 9.73919 5.43181 
66 2 11.5917 8.44744 5.96814 
8 1 11.4288 12.9913 3.99905 
46 2 0.263105 9.75235 3.83376 
143 2 12.5154 7.0585 3.83315 
91 1 11.8974 8.10734 7.52953 
29 2 11.5176 9.4531 8.37957 
64 2 10.7402 7.04673 7.96556 
134 2 0.32348 7.5052 8.0471 
69 2 10.788 11.6523 10.0187 
27 1 7.98279 8.45191 10.9121 
130 2 9.40335 8.02776 10.2355 
26 1 11.027 12.869 11.0794 
114 2 12.4434 9.76781 10.7915 
45 1 11.8802 10.57 9.48595 
60 2 9.67552 0.722521 11.2846 
59 1 8.43082 0.304485 12.2278 
38 1 8.22224 10.4381 0.389076 
100 2 8.12632 9.19908 12.361 
3 2 11.527 12.211 12.4795 
107 2 8.4828 11.7171 12.4333 
73 1 12.6988 11.7771 0.522851 
1 2 0.0432935 7.89396 12.5913 
31 2 0.192875 0.178844 1.14385 
10 2 0.678529 10.7221 12.8161 
71 1 0.487989 9.34279 11.9461 
