ITEM: TIMESTEP
0
ITEM: NUMBER OF ATOMS
150
ITEM: BOX BOUNDS pp pp pp
6.8363411345728764e-04 1.3083592046805737e+01
6.8363411345728764e-04 1.3083592046805737e+01
6.8363411345728764e-04 1.3083592046805737e+01
ITEM: ATOMS id type x y z 
70 2 1.73786 4.19437 1.86307 
128 2 3.58505 6.07167 1.34062 
40 1 3.86159 0.995685 2.99153 
32 1 1.4462 2.82559 2.66739 
50 1 2.03253 5.63084 1.1881 
101 2 3.68249 0.369056 1.4826 
95 2 0.8011 1.60388 1.7896 
62 2 2.85221 2.22043 3.22903 
124 2 5.42952 1.41935 3.14552 
55 1 6.82431 0.79211 3.7208 
54 1 6.05997 6.28884 5.33897 
21 2 4.64834 6.30107 4.55788 
14 2 0.400953 3.14846 3.85651 
68 2 2.37993 5.90092 5.91108 
72 2 1.98443 4.76585 8.19569 
94 1 1.88064 1.16428 7.17658 
36 2 3.47287 1.19986 7.53838 
146 2 5.89174 5.55149 6.78038 
19 1 1.19206 5.4611 6.93223 
20 1 4.93019 0.566797 7.90743 
113 2 6.1257 1.64212 8.19373 
79 2 0.712624 1.43279 8.32014 
42 2 1.53245 2.20699 5.98976 
127 2 3.2675 3.51041 10.4099 
33 1 2.30128 4.69003 9.78952 
116 2 5.7388 2.31892 10.6401 
112 2 0.791847 4.79463 10.4453 
131 2 6.59558 4.11757 9.01986 
56 2 3.09442 6.06909 10.201 
52 1 6.78348 2.52769 9.40223 
139 2 4.07618 2.04269 12.5615 
117 2 5.26978 4.46005 11.9521 
77 1 4.47065 0.561959 0.0683474 
110 2 1.68377 5.43342 12.6981 
16 1 6.5092 5.5011 12.1707 
9 2 6.06022 0.574088 0.494972 
149 2 6.76739 6.48981 10.9079 
140 2 6.11807 6.38458 0.407 
34 1 4.51097 3.11274 11.4046 
83 1 5.78605 9.67557 2.12998 
65 1 4.68307 7.08628 0.723714 
104 2 4.93664 8.36059 1.68895 
138 2 4.70549 10.7777 2.67798 
148 2 1.07372 6.84692 1.71236 
142 2 6.68465 10.0775 0.831721 
96 1 3.25145 6.95395 5.05528 
78 1 3.73172 11.2268 3.89041 
118 2 4.55579 10.6773 5.28815 
125 2 6.4073 12.426 4.34398 
115 2 2.36238 7.51464 3.8345 
87 2 2.22959 10.6534 3.84255 
121 2 6.74967 9.34414 3.42299 
61 2 6.51494 7.84513 5.54613 
39 2 3.63481 12.8375 4.03553 
92 1 0.633117 10.3487 4.11266 
102 2 0.569897 10.3698 5.74806 
58 1 5.9912 11.5618 5.64829 
89 1 0.823277 7.3917 3.23582 
137 2 7.12035 10.4172 5.78057 
132 2 3.65575 8.25845 5.98363 
90 2 2.73219 10.4545 7.16444 
80 1 4.04079 9.69821 6.5959 
67 1 1.25763 11.1411 7.0081 
41 2 5.19434 9.73715 7.73198 
12 2 1.54568 12.7104 6.68081 
44 2 5.47477 12.5723 6.79567 
24 2 0.351184 10.964 8.33107 
120 2 5.569 10.586 10.2963 
75 1 5.63716 9.32392 9.25329 
28 2 4.51161 8.26825 9.77097 
48 1 5.35256 12.1654 10.6416 
49 2 6.85984 12.8041 10.8318 
97 1 3.49124 7.53068 10.7938 
136 2 7.1034 8.6405 9.41073 
133 2 4.71354 12.8138 9.29351 
37 2 4.1382 7.46862 12.2974 
108 2 4.44312 12.5382 11.9455 
15 2 2.09571 8.36501 10.9096 
25 1 12.651 0.780073 1.11863 
109 2 8.29498 4.85701 2.20359 
11 1 7.54538 1.10062 0.917822 
99 2 7.83511 0.634317 2.45389 
135 2 11.5547 0.325184 2.26173 
74 2 7.55378 2.71584 0.913785 
63 1 8.4737 4.05686 0.808898 
126 2 9.70879 6.22797 3.97638 
51 2 7.38538 1.71777 4.92012 
88 2 9.06303 3.65414 4.52146 
84 1 8.46038 2.6717 5.69084 
17 1 8.62576 5.04703 3.77947 
122 2 7.25399 5.54276 4.53466 
5 2 10.8189 12.9624 4.83272 
93 1 0.204219 3.02253 5.44774 
81 2 12.04 2.02596 5.74439 
43 2 11.5939 0.198434 7.45009 
4 2 7.78141 3.6658 6.7874 
103 2 8.20768 5.97945 7.93393 
129 2 9.54558 1.66429 6.36173 
22 1 10.9453 0.873526 6.11041 
7 1 7.06129 4.85923 7.65769 
144 2 0.154326 4.35282 6.35606 
2 1 9.59137 6.06277 8.81893 
76 2 8.39108 2.34562 9.64703 
13 1 9.92654 2.95293 9.77447 
23 2 9.81157 4.52606 9.32548 
106 2 11.1437 2.23183 8.93981 
86 1 12.2547 1.04493 8.7098 
6 2 12.1786 0.0888359 10.0238 
30 2 7.92956 4.78988 12.5392 
111 2 12.2392 4.49057 12.5032 
57 1 11.2097 3.22716 12.7208 
98 2 11.9524 1.85255 0.106253 
123 2 8.51622 0.583068 12.8106 
35 2 10.4196 2.92859 11.3244 
85 1 0.282229 5.46966 11.8454 
119 2 10.037 3.63351 0.69221 
145 2 11.7566 10.2724 1.15311 
141 2 9.2304 9.56171 0.980137 
18 1 10.4561 9.81432 2.01506 
147 2 10.6705 8.51177 2.94647 
53 2 10.1902 11.1485 2.94333 
105 2 8.93267 8.5762 4.80715 
150 2 12.7015 11.526 3.63012 
82 1 10.262 7.71814 4.30636 
47 1 7.4035 9.06103 4.91518 
66 2 11.3 7.66925 5.5386 
8 1 11.2565 12.2943 3.41836 
46 2 0.283468 8.91611 3.45292 
143 2 0.0738998 6.24997 4.05544 
91 1 11.8937 7.45671 7.03172 
29 2 11.8758 8.95837 7.66205 
64 2 10.8278 6.57833 7.9174 
134 2 0.298796 6.80199 7.24745 
69 2 10.9927 10.9104 9.34743 
27 1 7.80232 7.71443 10.56 
130 2 9.20599 7.07132 10.0482 
26 1 11.042 12.0913 10.4611 
114 2 12.7622 9.1081 10.0861 
45 1 12.2217 9.99084 8.83604 
60 2 9.6059 12.8302 10.5526 
59 1 8.32828 12.6759 11.5295 
38 1 8.02535 9.81367 13.0031 
100 2 7.8919 8.58757 11.939 
3 2 11.474 11.3902 11.8636 
107 2 8.33633 11.1614 12.1471 
73 1 12.5684 10.9841 13.0215 
1 2 13.0636 7.07933 11.737 
31 2 0.0394561 12.4394 0.448156 
10 2 0.462255 9.8239 12.4223 
71 1 0.54399 8.58036 11.357 
