ITEM: TIMESTEP
0
ITEM: NUMBER OF ATOMS
150
ITEM: BOX BOUNDS pp pp pp
-4.0721879247657551e-04 1.3041375696396390e+01
-4.0721879247657551e-04 1.3041375696396390e+01
-4.0721879247657551e-04 1.3041375696396390e+01
ITEM: ATOMS id type x y z 
70 2 1.68377 4.65487 2.01757 
128 2 3.53185 6.40509 1.19965 
40 1 3.86301 1.15423 2.87057 
32 1 1.45986 3.09621 2.40019 
50 1 1.9842 5.94647 1.08612 
101 2 3.69144 0.291194 1.48252 
95 2 0.841856 2.08985 1.26333 
62 2 2.89316 2.43009 2.81971 
124 2 5.43955 1.50086 3.09348 
55 1 6.77644 0.91216 3.83241 
54 1 5.86297 6.39558 4.98465 
21 2 4.41085 6.42261 4.25679 
14 2 0.480415 3.06684 3.69416 
68 2 2.58908 6.59661 6.19865 
72 2 2.25101 4.95322 8.18612 
94 1 1.79952 1.09505 7.0356 
36 2 3.32417 0.994618 7.57257 
146 2 5.72576 5.7156 6.4659 
19 1 1.45615 5.72654 6.97553 
20 1 4.75322 0.588311 8.207 
113 2 5.8198 1.80623 8.21936 
79 2 0.657714 1.49928 8.15071 
42 2 1.64278 2.17573 5.84342 
127 2 3.36073 3.49462 10.4083 
33 1 2.48753 4.75104 9.79476 
116 2 5.90814 2.5899 10.6735 
112 2 0.923655 4.86402 10.304 
131 2 6.33933 4.33566 8.81209 
56 2 3.26306 6.0717 10.4006 
52 1 6.63996 2.77848 9.23543 
139 2 4.16276 1.72518 12.3782 
117 2 5.06356 4.32271 12.3199 
77 1 4.53697 0.322539 0.0975431 
110 2 1.53083 5.43626 12.6534 
16 1 6.43694 5.20021 12.5063 
9 2 6.10448 0.426004 0.570083 
149 2 6.79194 6.10866 11.1941 
140 2 6.13979 6.26106 0.677664 
34 1 4.53444 3.0249 11.4641 
83 1 5.91469 9.90301 2.17119 
65 1 4.84926 7.2528 0.779602 
104 2 5.13836 8.51408 1.76806 
138 2 4.83465 10.9434 2.86321 
148 2 1.08154 7.27945 1.35395 
142 2 6.69349 10.2943 0.779062 
96 1 3.06959 7.19147 4.76506 
78 1 3.73859 11.4685 3.95635 
118 2 4.44646 11.055 5.44371 
125 2 6.29423 12.905 4.98206 
115 2 1.77828 7.2383 3.79901 
87 2 2.24141 10.8807 3.83535 
121 2 7.01994 9.62277 3.35797 
61 2 6.41096 7.9295 5.1948 
39 2 3.56546 0.0384409 4.02485 
92 1 0.612819 10.6279 3.89335 
102 2 0.315696 10.4544 5.49838 
58 1 5.90929 11.7211 6.00764 
89 1 0.487116 7.65117 2.83719 
137 2 6.94299 10.4931 5.82669 
132 2 3.59624 8.69095 5.18504 
90 2 2.46337 10.2822 6.97578 
80 1 3.86729 9.75402 6.37226 
67 1 1.04763 11.0952 6.8013 
41 2 4.9554 9.4507 7.53913 
12 2 1.42 12.646 6.47254 
44 2 5.45978 12.3818 7.40783 
24 2 0.20949 11.0402 8.17609 
120 2 5.46673 10.6464 9.92884 
75 1 5.34935 9.22247 9.12632 
28 2 4.0488 8.46917 9.74648 
48 1 5.30674 12.0668 10.6981 
49 2 6.79865 12.702 10.9495 
97 1 3.48874 7.5799 10.9779 
136 2 6.61217 8.30762 9.62668 
133 2 4.51051 0.0508299 9.71904 
37 2 4.50629 7.68495 12.2594 
108 2 4.51871 12.0866 12.1262 
15 2 2.04002 8.17708 11.3906 
25 1 12.8057 1.00138 0.689275 
109 2 8.53371 4.6084 2.25331 
11 1 7.6175 0.589409 1.16652 
99 2 7.56512 0.0374385 2.69741 
135 2 11.703 0.674684 1.86773 
74 2 7.98003 2.1589 1.34934 
63 1 8.62651 3.60713 0.99214 
126 2 9.37918 6.71242 3.74812 
51 2 7.59851 2.12373 4.50839 
88 2 9.19723 4.22148 4.76278 
84 1 8.45878 3.01167 5.56613 
17 1 8.59015 5.31031 3.70118 
122 2 7.04932 5.59468 4.21572 
5 2 11.0591 0.609942 4.48624 
93 1 0.474911 3.19647 5.3039 
81 2 12.1102 2.60015 5.86983 
43 2 11.5413 0.44896 7.14065 
4 2 7.50802 3.76309 6.64555 
103 2 8.00915 6.10977 7.74862 
129 2 9.54539 1.99871 6.21184 
22 1 11.0148 1.38624 5.90924 
7 1 6.82741 5.03351 7.43248 
144 2 0.845533 4.63848 5.92616 
2 1 9.34558 6.19171 8.70469 
76 2 8.23953 2.4872 9.2484 
13 1 9.75613 3.05693 9.4995 
23 2 9.61956 4.64693 9.15228 
106 2 11.0474 2.3996 8.73141 
86 1 12.132 1.19092 8.49294 
6 2 11.9868 0.204166 9.76604 
30 2 7.70591 4.24296 12.8398 
111 2 12.1064 4.42693 12.1112 
57 1 11.1409 3.13109 12.331 
98 2 12.0277 1.77629 12.5277 
123 2 8.55652 13.0144 13.0388 
35 2 10.1306 2.9278 11.0753 
85 1 0.227082 5.46203 11.6558 
119 2 10.1738 3.36951 0.57039 
145 2 11.681 10.6066 1.17687 
141 2 9.1965 9.80587 1.0116 
18 1 10.3607 10.2532 2.06758 
147 2 10.555 9.10733 3.19155 
53 2 10.1981 11.6963 2.84923 
105 2 8.9411 8.78094 5.12877 
150 2 12.7799 11.9211 3.42854 
82 1 10.2115 7.98959 4.32944 
47 1 7.40009 9.20921 4.91447 
66 2 11.293 7.62432 5.49115 
8 1 11.3909 12.7745 3.16086 
46 2 0.344981 9.25639 3.08646 
143 2 12.2187 6.78012 3.0623 
91 1 11.7903 7.46159 7.02839 
29 2 11.8129 8.96628 7.64895 
64 2 10.6345 6.67912 7.86988 
134 2 0.201145 6.73857 7.30403 
69 2 10.9564 10.8462 9.4506 
27 1 7.52212 7.50394 10.7359 
130 2 8.92308 7.10741 9.99057 
26 1 10.9478 12.1748 10.3962 
114 2 12.9389 9.12268 9.98613 
45 1 12.1871 9.99025 8.83152 
60 2 9.48198 12.8571 10.5185 
59 1 8.29615 12.4372 11.529 
38 1 7.99659 9.75754 12.9499 
100 2 7.69758 8.38003 12.1196 
3 2 11.467 11.657 11.8447 
107 2 8.34536 10.8225 11.7659 
73 1 12.5548 11.1472 12.9647 
1 2 12.8122 7.0331 11.5673 
31 2 0.307109 12.5411 0.291984 
10 2 0.266358 9.82332 12.3986 
71 1 0.449469 8.53055 11.4121 
