ITEM: TIMESTEP
0
ITEM: NUMBER OF ATOMS
150
ITEM: BOX BOUNDS pp pp pp
-5.5490376651764301e-03 1.3096993257104984e+01
-5.5490376651764301e-03 1.3096993257104984e+01
-5.5490376651764301e-03 1.3096993257104984e+01
ITEM: ATOMS id type x y z 
70 2 1.88959 4.47403 1.87307 
128 2 3.7972 6.29163 1.36431 
40 1 4.00309 1.26686 3.01114 
32 1 1.60638 3.10903 2.68853 
50 1 2.21899 5.92922 1.25544 
101 2 3.84275 0.66172 1.49343 
95 2 0.93666 1.88861 1.82755 
62 2 3.01577 2.51002 3.24204 
124 2 5.56626 1.69225 3.17849 
55 1 6.96138 1.0547 3.74197 
54 1 6.12452 6.60873 5.46683 
21 2 4.711 6.88739 4.74695 
14 2 0.583486 3.41815 3.90091 
68 2 2.45585 6.19719 6.01211 
72 2 1.93409 5.05243 8.24423 
94 1 1.91549 1.4729 7.26441 
36 2 3.48727 1.42586 7.71064 
146 2 5.9401 5.82138 6.87763 
19 1 1.19619 5.73867 6.94247 
20 1 4.97018 0.817812 8.028 
113 2 6.20206 1.85233 8.34397 
79 2 0.70989 1.655 8.38665 
42 2 1.68892 2.60686 6.13307 
127 2 3.31335 3.90891 10.4476 
33 1 2.32537 5.07279 9.82059 
116 2 5.77362 2.64599 10.7355 
112 2 0.852304 5.26804 10.5309 
131 2 6.68466 4.34746 9.06451 
56 2 3.12462 6.46812 10.153 
52 1 6.86757 2.7757 9.52616 
139 2 4.09123 2.4184 12.612 
117 2 5.32959 4.8381 11.9615 
77 1 4.58204 0.952934 0.0709853 
110 2 1.81353 5.85899 12.7853 
16 1 6.61718 5.83178 12.1538 
9 2 6.17925 1.06738 0.45146 
149 2 6.96688 6.79692 10.8926 
140 2 6.25985 6.775 0.338731 
34 1 4.54566 3.48555 11.4502 
83 1 5.89529 9.87235 2.20043 
65 1 4.78793 7.37428 0.682357 
104 2 4.96587 8.65949 1.64765 
138 2 4.87158 11.0276 2.76605 
148 2 1.34407 7.1585 1.88056 
142 2 6.89211 10.2377 0.960547 
96 1 3.27638 7.3915 5.30403 
78 1 3.8087 11.5042 3.8922 
118 2 4.52889 11.0052 5.37246 
125 2 6.50167 12.753 4.43402 
115 2 2.3761 8.00043 4.11425 
87 2 2.30493 10.9686 3.70248 
121 2 6.76599 9.4605 3.53455 
61 2 6.82839 8.05785 5.73661 
39 2 3.73988 0.016933 4.03191 
92 1 0.731608 10.6676 4.0798 
102 2 0.79579 10.67 5.71869 
58 1 5.98734 11.8891 5.70184 
89 1 0.927863 7.73499 3.35495 
137 2 7.06465 10.6982 5.83673 
132 2 3.64778 8.64298 6.31275 
90 2 2.78705 10.941 7.3482 
80 1 4.05962 10.1302 6.78099 
67 1 1.30999 11.5428 6.99357 
41 2 5.27148 10.1794 7.8546 
12 2 1.56041 -9.24049e-05 6.60801 
44 2 5.48715 12.9096 6.84514 
24 2 0.269688 11.372 8.21051 
120 2 5.75556 10.8885 10.4224 
75 1 5.81653 9.67659 9.31545 
28 2 4.73247 8.56038 9.80094 
48 1 5.4838 12.4695 10.7249 
49 2 6.95371 0.103169 10.8315 
97 1 3.61715 7.88898 10.7675 
136 2 7.29111 8.99727 9.40675 
133 2 4.77358 13.032 9.37908 
37 2 4.1956 7.72726 12.2906 
108 2 4.59046 12.8935 12.0221 
15 2 2.29817 8.84371 10.8608 
25 1 12.7141 1.20455 1.16795 
109 2 8.28915 5.33852 2.20966 
11 1 7.68977 1.43337 0.950673 
99 2 7.91127 0.81168 2.44198 
135 2 11.6793 0.705149 2.35342 
74 2 7.85091 3.03025 1.10195 
63 1 8.58651 4.46439 0.883022 
126 2 9.54344 6.74339 4.05516 
51 2 7.59233 2.03893 4.85564 
88 2 9.1369 4.10971 4.506 
84 1 8.58976 3.06231 5.64344 
17 1 8.57574 5.47468 3.79685 
122 2 7.15145 5.76036 4.5491 
5 2 10.8555 0.154026 4.88222 
93 1 0.338623 3.2928 5.48456 
81 2 12.2641 2.20392 5.7449 
43 2 11.5577 0.520068 7.52757 
4 2 7.83492 3.94579 6.78573 
103 2 8.27926 6.22356 7.99265 
129 2 9.73638 2.12744 6.31502 
22 1 11.0484 1.18526 6.12786 
7 1 7.13242 5.1071 7.70986 
144 2 0.155378 4.63884 6.352 
2 1 9.69965 6.33845 8.80798 
76 2 8.47879 2.66193 9.83554 
13 1 10.016 3.28739 9.93157 
23 2 9.93937 4.81635 9.34524 
106 2 11.2091 2.46677 9.15804 
86 1 12.2759 1.26774 8.81461 
6 2 12.2278 0.235897 10.0738 
30 2 7.96593 5.0306 12.5864 
111 2 12.3763 5.03434 12.599 
57 1 11.3474 3.78184 12.8446 
98 2 12.0613 2.40424 0.264648 
123 2 8.63866 0.907245 12.8471 
35 2 10.5279 3.42364 11.4737 
85 1 0.41831 5.98397 11.934 
119 2 10.1908 4.24821 0.78821 
145 2 12.0323 10.5865 1.16974 
141 2 9.4945 9.9357 0.838089 
18 1 10.6666 10.1539 1.94139 
147 2 10.7311 8.84264 2.8849 
53 2 10.3632 11.4944 2.85496 
105 2 9.0763 9.16541 4.8286 
150 2 12.7971 11.8679 3.70527 
82 1 10.2838 8.173 4.29445 
47 1 7.49199 9.35806 5.0166 
66 2 11.368 8.04352 5.48049 
8 1 11.3595 12.6416 3.46042 
46 2 0.300122 9.2418 3.45035 
143 2 0.188706 6.55989 4.13826 
91 1 11.9363 7.754 6.97196 
29 2 11.9277 9.22836 7.66764 
64 2 10.8652 6.84031 7.81077 
134 2 0.312658 7.09296 7.21243 
69 2 10.9953 11.1072 9.38813 
27 1 7.98324 8.04282 10.5418 
130 2 9.38243 7.38908 10.024 
26 1 11.0628 12.2821 10.5016 
114 2 12.9787 9.53169 10.0303 
45 1 12.2746 10.3122 8.79237 
60 2 9.66035 13.0741 10.5932 
59 1 8.38759 13.0187 11.5802 
38 1 8.16305 10.1115 13.0281 
100 2 8.06312 8.91646 11.9222 
3 2 11.4786 11.6174 11.9239 
107 2 8.2774 11.5172 12.2146 
73 1 12.6862 11.3886 13.0178 
1 2 0.191353 7.60282 11.8001 
31 2 13.0817 12.9107 0.377418 
10 2 0.645077 10.3436 12.3518 
71 1 0.752003 9.07656 11.3194 
