ITEM: TIMESTEP
0
ITEM: NUMBER OF ATOMS
150
ITEM: BOX BOUNDS pp pp pp
-4.3899462918943078e-03 1.3028235659141346e+01
-4.3899462918943078e-03 1.3028235659141346e+01
-4.3899462918943078e-03 1.3028235659141346e+01
ITEM: ATOMS id type x y z 
70 2 1.66087 4.64833 2.29932 
128 2 3.62481 6.42433 1.88858 
40 1 4.00674 1.33856 3.32283 
32 1 1.53306 3.10493 2.77341 
50 1 2.08458 6.03679 1.57959 
101 2 3.80086 0.506095 1.91667 
95 2 1.01239 1.99906 1.68485 
62 2 2.99427 2.58675 3.30663 
124 2 5.59523 1.68097 3.50395 
55 1 6.96472 1.06306 4.16553 
54 1 6.07773 6.45036 5.57272 
21 2 4.64244 6.44313 4.81375 
14 2 0.520798 3.05529 4.04158 
68 2 2.78084 6.67527 6.67781 
72 2 2.3158 4.91482 8.5462 
94 1 2.16386 1.29033 7.50849 
36 2 3.73511 1.53121 7.84881 
146 2 5.90805 5.75772 7.04609 
19 1 1.61305 5.73673 7.31127 
20 1 5.04784 0.862496 8.52532 
113 2 6.2551 1.91726 8.74391 
79 2 1.02707 1.58651 8.67016 
42 2 1.68397 2.14516 6.21874 
127 2 3.63635 3.58725 10.7337 
33 1 2.65704 4.76641 10.139 
116 2 6.18467 2.71061 11.1926 
112 2 1.14703 4.78498 10.8016 
131 2 6.77782 4.43331 9.35843 
56 2 3.3696 6.15154 10.6616 
52 1 7.03266 2.87281 9.81057 
139 2 4.28037 1.93941 12.7938 
117 2 5.20627 4.51729 12.71 
77 1 4.59247 0.511196 0.498184 
110 2 1.86787 5.72434 -0.00113301 
16 1 6.4995 5.50039 12.9087 
9 2 6.1747 0.541659 0.919152 
149 2 6.71475 6.423 11.5808 
140 2 6.17632 6.49675 1.13117 
34 1 4.75846 3.18747 11.8644 
83 1 5.96326 9.98887 2.58271 
65 1 4.8059 7.36043 1.30098 
104 2 5.05802 8.67083 2.23166 
138 2 5.00417 11.1448 3.25857 
148 2 1.18918 7.37223 1.86924 
142 2 6.74032 10.3026 1.17649 
96 1 3.28682 7.23564 5.23522 
78 1 3.92087 11.6304 4.37825 
118 2 4.62746 11.1316 5.84736 
125 2 6.5002 12.9563 5.23766 
115 2 1.99164 7.24858 4.27038 
87 2 2.44114 11.02 4.19301 
121 2 7.05274 9.63545 3.76516 
61 2 6.60582 7.99649 5.72932 
39 2 3.7449 0.20698 4.47723 
92 1 0.832359 10.7298 4.40523 
102 2 0.698679 10.7557 6.03671 
58 1 6.10301 11.8446 6.3393 
89 1 0.64972 7.69507 3.38968 
137 2 7.12972 10.602 6.19567 
132 2 3.82494 8.74496 5.60365 
90 2 2.75604 10.2194 7.50839 
80 1 4.13958 9.79015 6.79523 
67 1 1.46675 11.2138 7.3934 
41 2 5.23021 9.5245 7.96758 
12 2 2.04997 12.719 7.18694 
44 2 5.64643 12.6164 7.68312 
24 2 0.566618 11.1707 8.72971 
120 2 5.49781 10.8323 10.2977 
75 1 5.60504 9.37279 9.56569 
28 2 4.44074 8.47477 10.2445 
48 1 5.32849 12.276 11.0194 
49 2 6.85811 12.8547 11.24 
97 1 3.58307 7.62792 11.3233 
136 2 6.98412 8.63104 10.0388 
133 2 4.60075 0.257286 9.97214 
37 2 4.32322 7.68623 12.7881 
108 2 4.52706 12.3316 12.439 
15 2 2.12173 8.32556 11.4512 
25 1 12.8764 1.00381 1.11918 
109 2 8.55596 4.62134 2.75697 
11 1 7.70549 0.822256 1.39863 
99 2 7.78601 0.345042 2.9524 
135 2 11.8182 0.688087 2.33733 
74 2 7.97012 2.41544 1.43324 
63 1 8.69282 3.86856 1.33587 
126 2 9.55361 6.70066 4.15626 
51 2 7.82097 2.18546 4.94964 
88 2 9.45131 4.21294 5.21248 
84 1 8.69439 3.02748 6.03771 
17 1 8.76003 5.30209 4.20504 
122 2 7.27217 5.63538 4.83035 
5 2 11.2382 0.666886 4.97819 
93 1 0.594923 3.23515 5.64425 
81 2 12.2143 2.75605 6.2896 
43 2 11.9109 0.558632 7.58427 
4 2 7.73891 3.80926 7.09229 
103 2 8.2714 6.20176 8.06853 
129 2 9.73785 2.00357 6.74281 
22 1 11.2288 1.4578 6.39872 
7 1 7.09808 5.07847 7.90515 
144 2 1.10322 4.66993 6.18772 
2 1 9.56987 6.30535 9.07056 
76 2 8.63719 2.60936 9.83755 
13 1 10.1574 3.23639 9.90351 
23 2 9.99007 4.75055 9.32716 
106 2 11.4254 2.48358 9.1975 
86 1 12.4874 1.25275 8.97192 
6 2 12.201 0.249132 10.2126 
30 2 7.86884 4.6802 0.180982 
111 2 12.4903 4.52494 12.8124 
57 1 11.3645 3.34964 12.8742 
98 2 12.0641 1.88722 0.0195313 
123 2 8.62618 0.154456 0.245466 
35 2 10.5435 3.34297 11.4755 
85 1 0.522245 5.52712 12.1159 
119 2 10.2609 3.62489 0.996828 
145 2 11.7818 10.6724 1.54656 
141 2 9.27753 10.0075 1.41923 
18 1 10.4867 10.3227 2.4713 
147 2 10.7055 9.07837 3.48115 
53 2 10.3513 11.7045 3.3561 
105 2 9.08916 8.86731 5.41421 
150 2 12.9149 11.9429 3.88464 
82 1 10.3556 8.01839 4.67458 
47 1 7.53691 9.28103 5.3079 
66 2 11.3826 7.71054 5.89756 
8 1 11.5285 12.8042 3.65272 
46 2 0.503503 9.28264 3.75759 
143 2 12.4097 6.76668 3.60784 
91 1 11.9935 7.6063 7.39373 
29 2 12.2661 9.13883 7.86575 
64 2 10.8239 7.0456 8.38355 
134 2 0.326708 6.71869 7.5948 
69 2 11.1134 10.9902 9.57665 
27 1 7.70371 7.65254 11.1444 
130 2 9.02615 7.01369 10.4384 
26 1 11.0823 12.1959 10.6765 
114 2 12.8851 9.18915 10.361 
45 1 12.4098 10.1261 9.12767 
60 2 9.60551 12.8506 10.8283 
59 1 8.35483 12.5286 11.804 
38 1 8.08389 9.8765 0.319499 
100 2 7.93518 8.45747 12.5592 
3 2 11.5434 11.5388 12.0935 
107 2 8.31489 10.9308 12.1298 
73 1 12.6186 11.1346 0.236344 
1 2 12.9885 7.04933 11.9175 
31 2 0.322852 12.563 0.583319 
10 2 0.379841 9.80121 12.7776 
71 1 0.534755 8.57531 11.7066 
