ITEM: TIMESTEP
0
ITEM: NUMBER OF ATOMS
150
ITEM: BOX BOUNDS pp pp pp
-7.7394186058648813e-03 1.3107381589101111e+01
-7.7394186058648813e-03 1.3107381589101111e+01
-7.7394186058648813e-03 1.3107381589101111e+01
ITEM: ATOMS id type x y z 
70 2 1.24726 4.1179 0.748854 
128 2 3.13659 5.98701 0.286611 
40 1 3.57792 0.87209 1.67387 
32 1 1.02279 2.6863 1.46394 
50 1 1.57616 5.57306 0.133104 
101 2 3.51873 0.238001 0.160551 
95 2 0.234184 1.56322 0.575815 
62 2 2.47716 2.03944 1.84148 
124 2 5.14886 1.30977 1.80471 
55 1 6.56169 0.581584 2.23299 
54 1 5.59747 6.45813 4.09244 
21 2 4.22816 6.38993 3.23599 
14 2 0.0732142 2.95396 2.74891 
68 2 2.04661 5.83976 4.72001 
72 2 1.70487 4.98361 7.13538 
94 1 1.10688 0.902188 6.21705 
36 2 2.74057 1.04307 6.32014 
146 2 5.28399 5.69432 5.49789 
19 1 0.888447 5.33679 5.75118 
20 1 4.26926 0.542357 6.63055 
113 2 5.40095 1.65064 7.04298 
79 2 0.0590901 1.60478 7.28789 
42 2 0.595646 1.45345 4.77262 
127 2 2.69717 3.82805 9.44241 
33 1 1.90431 5.08388 8.73899 
116 2 5.07597 2.4749 9.45731 
112 2 0.379845 5.35193 9.3021 
131 2 5.94695 4.12839 7.67852 
56 2 2.76988 6.3981 9.18931 
52 1 6.11406 2.57266 8.20072 
139 2 3.51903 2.12428 11.4411 
117 2 4.77039 4.48735 11.0282 
77 1 4.18823 0.692683 11.8635 
110 2 1.22988 5.42057 11.6652 
16 1 6.12582 5.33532 11.3539 
9 2 5.79677 0.958995 12.1187 
149 2 6.59959 6.25583 10.1054 
140 2 5.73537 6.28491 12.6231 
34 1 3.93149 3.26217 10.3466 
83 1 5.24803 9.65826 1.00643 
65 1 4.29663 6.99564 12.8975 
104 2 4.53262 8.21334 0.816842 
138 2 4.05812 10.6473 1.52363 
148 2 0.635622 6.77896 0.715633 
142 2 5.91587 9.98747 12.6702 
96 1 2.85293 6.9569 3.88797 
78 1 3.185 11.1798 2.77836 
118 2 4.1812 10.653 4.09003 
125 2 6.05467 12.4133 3.09846 
115 2 1.87843 7.61053 2.78644 
87 2 1.63669 10.7316 2.89532 
121 2 6.35072 9.56275 2.2331 
61 2 5.99572 8.02623 4.29187 
39 2 3.28484 12.7993 2.76644 
92 1 0.0388427 10.3417 3.15768 
102 2 13.1012 10.2804 4.80061 
58 1 5.54833 11.6431 4.41707 
89 1 0.343796 7.40351 2.20562 
137 2 6.68774 10.5236 4.68145 
132 2 3.29411 8.20447 4.86992 
90 2 2.37033 10.4832 5.8188 
80 1 3.69797 9.66814 5.40688 
67 1 0.811074 10.8184 6.10556 
41 2 4.67349 9.6816 6.69647 
12 2 0.73904 12.4256 6.28954 
44 2 4.93555 12.695 5.47783 
24 2 0.360877 10.0413 7.44357 
120 2 5.3273 10.7418 9.08736 
75 1 4.93513 9.38082 8.2858 
28 2 3.6002 8.84529 9.05256 
48 1 4.97966 12.3132 9.29686 
49 2 6.45531 13.0322 9.35582 
97 1 2.91152 7.77037 10.0618 
136 2 6.12121 8.29829 8.51441 
133 2 4.1448 12.735 7.97367 
37 2 3.8135 7.54215 11.4122 
108 2 4.16828 12.7327 10.6395 
15 2 1.40939 8.19929 10.5156 
25 1 12.0571 0.748319 0.0159925 
109 2 7.93984 4.69032 1.27275 
11 1 7.35559 0.920912 12.6252 
99 2 7.29807 0.0220936 0.881121 
135 2 11.0431 0.255283 1.22319 
74 2 7.88634 2.33124 0.0888952 
63 1 8.28752 3.89417 13.0329 
126 2 9.36665 6.33894 2.80846 
51 2 7.29589 1.62475 3.24104 
88 2 8.69008 3.8188 3.6341 
84 1 7.86049 2.63753 4.39787 
17 1 8.27934 5.14873 2.78782 
122 2 6.89416 5.73905 3.44011 
5 2 10.2506 0.0377712 3.77338 
93 1 12.8106 2.75851 4.29775 
81 2 11.2729 2.31568 4.57533 
43 2 11.0041 0.472768 6.34826 
4 2 6.79536 3.4841 5.30791 
103 2 7.67718 5.72003 6.48431 
129 2 8.82343 1.70826 5.32377 
22 1 10.2934 1.08217 5.01618 
7 1 6.37251 4.76513 6.25323 
144 2 0.158611 3.98388 5.2382 
2 1 8.95041 6.03029 7.47673 
76 2 7.72592 2.43536 8.51495 
13 1 9.23026 3.07943 8.76473 
23 2 9.1124 4.64721 8.332 
106 2 10.4847 2.41163 7.93417 
86 1 11.6159 1.25985 7.66147 
6 2 11.5364 0.226271 8.91521 
30 2 7.3793 4.40618 11.7839 
111 2 11.969 4.2233 11.166 
57 1 10.7567 3.21378 11.5688 
98 2 11.2824 1.78002 12.133 
123 2 8.22327 0.515255 11.3148 
35 2 9.73042 2.99731 10.3151 
85 1 12.938 5.47262 10.8268 
119 2 9.87293 3.96115 12.717 
145 2 10.8392 10.6414 0.057635 
141 2 8.41682 9.7743 13.0577 
18 1 9.6456 10.0338 0.979254 
147 2 10.0993 8.69421 1.77967 
53 2 9.47878 11.2525 2.07313 
105 2 8.46417 8.64388 3.68442 
150 2 12.0591 11.4721 2.70938 
82 1 9.83141 7.85645 3.16134 
47 1 6.96432 9.21903 3.73284 
66 2 10.8526 7.81273 4.42154 
8 1 10.6712 12.326 2.43695 
46 2 12.8706 8.92326 2.40916 
143 2 12.7441 6.27153 3.07815 
91 1 11.4064 7.22915 5.84589 
29 2 11.4485 8.51817 6.84932 
64 2 10.2422 6.28927 6.52995 
134 2 12.8701 6.50129 5.97522 
69 2 11.0915 10.8664 8.08852 
27 1 7.2487 7.61904 9.48168 
130 2 8.52895 7.20843 8.54463 
26 1 10.6494 11.9993 9.15605 
114 2 12.1947 8.83047 9.38845 
45 1 12.0129 9.53661 7.94889 
60 2 9.07368 12.387 9.08056 
59 1 7.84219 12.6056 10.1003 
38 1 7.32742 9.87797 11.8358 
100 2 7.4445 8.64017 10.7632 
3 2 10.9602 11.3719 10.6314 
107 2 7.54049 11.2395 10.9623 
73 1 11.8448 11.0584 11.9737 
1 2 12.3236 6.95019 11.1516 
31 2 12.5208 12.4782 12.3943 
10 2 12.7657 9.74232 11.728 
71 1 12.9309 8.42552 10.7855 
