ITEM: TIMESTEP
0
ITEM: NUMBER OF ATOMS
150
ITEM: BOX BOUNDS pp pp pp
-5.6587224280797380e-03 1.3042681860235982e+01
-5.6587224280797380e-03 1.3042681860235982e+01
-5.6587224280797380e-03 1.3042681860235982e+01
ITEM: ATOMS id type x y z 
70 2 1.8015 3.52123 2.02942 
128 2 3.89666 5.13618 1.58422 
40 1 4.11966 0.23645 3.0207 
32 1 1.63792 1.99344 2.52167 
50 1 2.32576 4.86208 1.29847 
101 2 4.00904 12.5874 1.53543 
95 2 1.11637 0.879438 1.44999 
62 2 3.08205 1.46419 3.08379 
124 2 5.69229 0.615719 3.23195 
55 1 7.08487 -0.00237873 3.82959 
54 1 6.34447 5.32419 5.17636 
21 2 4.90813 5.37068 4.42902 
14 2 0.564848 1.9846 3.73462 
68 2 3.03865 5.46336 6.31144 
72 2 2.44829 3.82695 8.22814 
94 1 2.26128 0.20175 7.1636 
36 2 3.84755 0.462547 7.42676 
146 2 6.18944 4.63575 6.65047 
19 1 1.81052 4.6076 6.94276 
20 1 5.25241 12.9687 8.03481 
113 2 6.43575 1.01022 8.24225 
79 2 1.15556 0.567157 8.33753 
42 2 1.73934 0.988708 5.8465 
127 2 3.78394 2.66613 10.3895 
33 1 2.77373 3.82117 9.8207 
116 2 6.274 1.64621 10.7511 
112 2 1.27143 3.84542 10.492 
131 2 6.96917 3.43185 9.02961 
56 2 3.49375 5.22317 10.3031 
52 1 7.19202 1.84863 9.41966 
139 2 4.42354 1.17397 12.5269 
117 2 5.5815 3.64569 12.1677 
77 1 4.81158 12.7719 0.134861 
110 2 2.09776 4.52883 12.7689 
16 1 6.85717 4.63729 12.4313 
9 2 6.39451 12.9107 0.548731 
149 2 7.0798 5.68262 11.2034 
140 2 6.49487 5.46343 0.751004 
34 1 4.9505 2.30155 11.4748 
83 1 6.0229 8.79957 2.33877 
65 1 5.0406 6.1424 1.03567 
104 2 5.22546 7.40804 2.03768 
138 2 4.96093 9.89539 2.93823 
148 2 1.45017 6.20845 1.60772 
142 2 6.74703 9.17274 0.926163 
96 1 3.56454 6.13154 4.9271 
78 1 3.98411 10.4747 4.09723 
118 2 4.74957 10.0668 5.55609 
125 2 6.67249 11.6792 4.62661 
115 2 2.26307 6.21004 3.98047 
87 2 2.50275 9.85012 4.08332 
121 2 7.14046 8.57461 3.52812 
61 2 6.90919 6.8444 5.42202 
39 2 3.85736 12.0871 4.10133 
92 1 0.883029 9.57383 4.2052 
102 2 0.660709 9.68686 5.8284 
58 1 6.25779 10.7783 5.90787 
89 1 0.885076 6.56319 3.12107 
137 2 7.23424 9.49137 5.9469 
132 2 4.09903 7.61664 5.38592 
90 2 2.82863 9.13494 7.14256 
80 1 4.26778 8.74907 6.52232 
67 1 1.53521 10.1356 7.12804 
41 2 5.31552 8.59647 7.74511 
12 2 2.11015 11.6407 6.89291 
44 2 5.89805 11.7482 7.1445 
24 2 0.773117 10.0878 8.5521 
120 2 5.78581 9.93051 10.0344 
75 1 5.80715 8.46656 9.30456 
28 2 4.73043 7.5342 10.0959 
48 1 5.64807 11.4367 10.6338 
49 2 7.17489 12.0205 10.8275 
97 1 3.81087 6.62884 11.0846 
136 2 7.26621 7.79032 9.56583 
133 2 4.90442 12.3338 9.49676 
37 2 4.52451 6.52941 12.5606 
108 2 4.83363 11.6103 12.0371 
15 2 2.35571 7.3183 11.333 
25 1 12.9987 12.921 0.916081 
109 2 9.0306 4.12927 2.23798 
11 1 7.87422 0.317821 1.05999 
99 2 8.0526 12.7269 2.55331 
135 2 11.9148 12.5886 2.10748 
74 2 7.9752 1.91633 1.29274 
63 1 8.9765 3.16243 0.946654 
126 2 9.88111 5.57499 4.31056 
51 2 7.72315 1.03427 4.89406 
88 2 9.52511 2.89673 4.59644 
84 1 8.81764 1.92278 5.70678 
17 1 9.04855 4.27386 3.84814 
122 2 7.50162 4.51697 4.37135 
5 2 11.3752 12.5564 4.73293 
93 1 0.664741 2.12234 5.33418 
81 2 12.3091 1.6596 6.00419 
43 2 12.0428 12.5324 7.33462 
4 2 8.1696 2.9168 6.81545 
103 2 8.45174 5.2958 7.88208 
129 2 9.85022 0.885598 6.41378 
22 1 11.3492 0.340704 6.12727 
7 1 7.37605 4.10777 7.61257 
144 2 1.24674 3.52675 5.87042 
2 1 9.81166 5.35507 8.80238 
76 2 8.79202 1.57031 9.54543 
13 1 10.3054 2.22589 9.62122 
23 2 10.0964 3.78989 9.18725 
106 2 11.556 1.49046 8.8502 
86 1 12.6317 0.25522 8.67512 
6 2 12.4027 12.3226 9.94588 
30 2 8.26385 3.85358 12.694 
111 2 12.6982 3.38219 12.528 
57 1 11.563 2.20224 12.5865 
98 2 12.2063 0.721238 12.8203 
123 2 8.82093 12.9514 12.8501 
35 2 10.7662 2.22482 11.176 
85 1 0.70581 4.44337 11.9012 
119 2 10.4541 2.55144 0.673152 
145 2 11.8015 9.59198 1.25814 
141 2 9.28797 8.89432 1.29731 
18 1 10.5763 9.17808 2.24506 
147 2 10.8681 7.87288 3.15118 
53 2 10.4441 10.5361 3.16935 
105 2 9.30643 7.92485 5.13283 
150 2 13.003 10.7622 3.59547 
82 1 10.5862 7.02434 4.5125 
47 1 7.71937 8.21362 5.04152 
66 2 11.7657 6.97335 5.61985 
8 1 11.6252 11.6498 3.40933 
46 2 0.635255 8.14317 3.48205 
143 2 12.7343 5.56963 3.45037 
91 1 12.287 6.57702 7.10218 
29 2 12.5508 7.99035 7.85341 
64 2 11.0656 5.88114 7.93364 
134 2 0.576092 5.64552 7.22305 
69 2 11.3454 9.96628 9.38714 
27 1 8.03932 6.92206 10.7173 
130 2 9.40458 6.28586 10.0861 
26 1 11.3547 11.1928 10.4692 
114 2 0.0572123 8.21929 10.3539 
45 1 12.649 9.06164 9.04632 
60 2 9.89102 11.8512 10.6684 
59 1 8.59257 11.8856 11.6298 
38 1 8.17258 9.04563 0.125172 
100 2 8.19972 7.85186 12.0595 
3 2 11.8841 10.5175 11.8548 
107 2 8.45828 10.4359 12.3804 
73 1 12.816 10.0463 0.0759341 
1 2 0.193103 5.99868 11.8279 
31 2 0.514532 11.4475 0.478867 
10 2 0.615576 8.70464 12.7756 
71 1 0.77172 7.52993 11.6522 
