ITEM: TIMESTEP
0
ITEM: NUMBER OF ATOMS
150
ITEM: BOX BOUNDS pp pp pp
2.6537645000166421e-03 1.3081115939158998e+01
2.6537645000166421e-03 1.3081115939158998e+01
2.6537645000166421e-03 1.3081115939158998e+01
ITEM: ATOMS id type x y z 
70 2 1.71719 4.9639 2.07582 
128 2 3.47714 6.87416 1.31596 
40 1 3.81291 1.54767 2.98248 
32 1 1.41057 3.4548 2.56521 
50 1 1.96441 6.31482 1.22567 
101 2 3.64331 0.828121 1.51449 
95 2 0.829832 2.40529 1.45328 
62 2 2.80405 2.7889 3.09373 
124 2 5.38194 1.9516 3.15253 
55 1 6.7777 1.36905 3.77015 
54 1 6.1275 6.90827 5.21762 
21 2 4.70824 6.99222 4.44008 
14 2 0.320377 3.49067 3.76288 
68 2 2.70555 6.56199 6.20169 
72 2 1.9795 5.17786 8.2765 
94 1 1.81122 1.57785 7.12947 
36 2 3.39148 1.57406 7.52754 
146 2 5.91084 6.20602 6.67616 
19 1 1.39888 5.98936 6.98282 
20 1 4.85135 1.12799 8.08489 
113 2 5.95159 2.32147 8.20936 
79 2 0.679081 1.96726 8.2696 
42 2 1.50886 2.55806 5.87807 
127 2 3.15377 4.03809 10.5461 
33 1 2.25067 5.23198 9.87818 
116 2 5.72337 3.05716 10.6688 
112 2 0.730915 5.44151 10.4737 
131 2 6.5946 4.79843 8.94128 
56 2 3.12302 6.57544 10.2554 
52 1 6.68954 3.21474 9.36452 
139 2 4.01216 2.42557 12.5141 
117 2 5.07824 4.97378 12.199 
77 1 4.43263 0.9909 0.101576 
110 2 1.5787 5.90831 12.7768 
16 1 6.40318 5.90821 12.4411 
9 2 6.01203 1.15491 0.51866 
149 2 6.80329 6.87063 11.1884 
140 2 6.05297 6.89183 0.620863 
34 1 4.422 3.6362 11.5003 
83 1 5.92417 10.3544 2.16351 
65 1 4.69721 7.78406 0.768948 
104 2 5.01431 9.07538 1.70052 
138 2 4.87475 11.4389 2.82394 
148 2 0.949207 7.52989 1.61641 
142 2 6.8005 10.7207 0.834248 
96 1 3.26773 7.49392 5.0014 
78 1 3.81597 11.8383 3.992 
118 2 4.5919 11.3612 5.42674 
125 2 6.35586 0.149327 4.75732 
115 2 2.07652 7.54842 3.91397 
87 2 2.35524 11.1526 3.959 
121 2 6.96032 10.0067 3.39776 
61 2 6.69696 8.42665 5.41048 
39 2 3.57736 0.358566 4.07996 
92 1 0.755733 10.8352 4.215 
102 2 0.643433 10.7448 5.84774 
58 1 6.02798 12.1596 5.92082 
89 1 0.61177 7.84134 3.19009 
137 2 7.1582 11.0153 5.82683 
132 2 3.58929 8.96427 5.68008 
90 2 2.76944 10.9407 7.29755 
80 1 4.02767 10.2364 6.56758 
67 1 1.25582 11.5442 7.12949 
41 2 5.21103 10.0506 7.65394 
12 2 1.44474 0.0299441 6.72253 
44 2 5.52604 12.9874 7.21273 
24 2 0.366257 11.3764 8.46461 
120 2 5.50349 11.1869 10.0966 
75 1 5.50802 9.78984 9.24358 
28 2 4.24312 8.9098 9.76803 
48 1 5.359 12.6878 10.7117 
49 2 6.87576 0.208084 10.9441 
97 1 3.43068 8.05141 10.877 
136 2 6.87095 8.9824 9.60727 
133 2 4.6344 0.519818 9.57735 
37 2 4.27326 8.11849 12.2855 
108 2 4.48983 12.8604 12.0841 
15 2 1.96212 8.67977 11.1727 
25 1 12.7825 1.33306 0.962296 
109 2 8.56341 5.39804 2.30225 
11 1 7.5014 1.48943 1.0758 
99 2 7.64259 0.759675 2.52543 
135 2 11.8327 0.83345 2.21524 
74 2 7.65999 3.06514 1.41529 
63 1 8.50967 4.40415 1.03352 
126 2 9.65484 7.01002 4.15259 
51 2 7.52908 2.50489 4.62887 
88 2 9.31536 4.38438 4.68747 
84 1 8.52588 3.30938 5.63067 
17 1 8.77379 5.69675 3.87747 
122 2 7.28158 6.03254 4.48975 
5 2 11.0339 0.646288 4.76935 
93 1 0.272546 3.52865 5.37335 
81 2 12.0079 2.80139 5.92827 
43 2 11.5864 0.755293 7.40417 
4 2 7.72163 4.19766 6.73125 
103 2 8.26747 6.54084 7.74939 
129 2 9.49516 2.19696 6.31679 
22 1 10.9717 1.54905 6.11347 
7 1 7.06306 5.46528 7.53801 
144 2 0.557197 4.96065 6.05501 
2 1 9.5637 6.56749 8.75758 
76 2 8.27531 2.87166 9.55939 
13 1 9.81576 3.44485 9.70306 
23 2 9.70801 5.01553 9.24835 
106 2 11.0676 2.73569 8.91119 
86 1 12.2206 1.58712 8.68344 
6 2 12.184 0.638921 10.0002 
30 2 7.71905 5.03358 12.8303 
111 2 12.1767 4.84722 12.4713 
57 1 11.13 3.58925 12.6332 
98 2 11.8747 2.17515 12.9752 
123 2 8.48758 1.0643 12.9415 
35 2 10.27 3.42334 11.2624 
85 1 0.171803 5.94306 11.9249 
119 2 10.0269 3.94396 0.692584 
145 2 11.8069 10.9893 1.26268 
141 2 9.32647 10.1525 1.07445 
18 1 10.5281 10.4691 2.12598 
147 2 10.8149 9.18145 3.0571 
53 2 10.2961 11.7967 3.07262 
105 2 9.14351 9.38256 4.94736 
150 2 12.8362 12.0374 3.75505 
82 1 10.4149 8.41138 4.43656 
47 1 7.56771 9.72157 4.9138 
66 2 11.4667 8.29064 5.65981 
8 1 11.4608 12.8929 3.44277 
46 2 0.423634 9.43005 3.50167 
143 2 12.5696 6.82128 3.66806 
91 1 11.9829 7.9293 7.15425 
29 2 11.9161 9.35849 7.92654 
64 2 10.8955 6.99293 7.94422 
134 2 0.391765 7.25068 7.29547 
69 2 10.9874 11.4413 9.46952 
27 1 7.73886 8.12753 10.7008 
130 2 9.09197 7.53499 9.99659 
26 1 11.0714 12.6622 10.5466 
114 2 12.7006 9.65037 10.3559 
45 1 12.212 10.4683 9.04361 
60 2 9.64942 0.356721 10.6537 
59 1 8.36507 0.127603 11.6106 
38 1 8.15235 10.3486 13.0422 
100 2 7.96396 9.08107 12.0235 
3 2 11.6023 11.9948 11.9341 
107 2 8.49015 11.658 12.1355 
73 1 12.6829 11.5583 0.0197557 
1 2 12.8398 7.53066 11.9168 
31 2 0.304194 12.9887 0.402059 
10 2 0.487327 10.268 12.6521 
71 1 0.4301 9.00472 11.6135 
