ITEM: TIMESTEP
0
ITEM: NUMBER OF ATOMS
150
ITEM: BOX BOUNDS pp pp pp
3.0853342930316306e-03 1.3156573527363088e+01
3.0853342930316306e-03 1.3156573527363088e+01
3.0853342930316306e-03 1.3156573527363088e+01
ITEM: ATOMS id type x y z 
70 2 1.83879 4.52301 1.53609 
128 2 3.58457 6.45926 0.888704 
40 1 3.98916 1.23509 2.45395 
32 1 1.53384 3.07264 2.17726 
50 1 2.05376 5.93252 0.779438 
101 2 3.82658 0.621936 0.939358 
95 2 0.901278 1.94447 1.16931 
62 2 2.95201 2.43861 2.67886 
124 2 5.55666 1.6549 2.62178 
55 1 6.97082 1.03283 3.16273 
54 1 6.22055 6.64772 4.76813 
21 2 4.81159 6.72651 3.983 
14 2 0.503879 3.30082 3.40511 
68 2 2.61555 6.36799 5.48968 
72 2 2.32055 5.33513 7.84033 
94 1 1.88864 1.30639 6.75996 
36 2 3.45933 1.33455 7.18388 
146 2 6.01195 5.87494 6.19061 
19 1 1.47607 5.8446 6.52362 
20 1 4.93231 0.786168 7.59565 
113 2 6.11604 1.89035 7.77616 
79 2 0.748808 1.74944 7.86241 
42 2 1.62537 2.23164 5.4604 
127 2 3.59631 3.76943 9.8398 
33 1 2.60948 5.008 9.40659 
116 2 6.02343 2.60616 10.2416 
112 2 1.08925 4.94649 10.0329 
131 2 6.67562 4.37327 8.45656 
56 2 3.35999 6.30022 10.0897 
52 1 6.89954 2.79868 8.88156 
139 2 4.11534 2.19644 11.9533 
117 2 5.4163 4.61346 11.6793 
77 1 4.58496 0.802337 12.6669 
110 2 1.68923 5.61095 12.3856 
16 1 6.66267 5.62872 11.9886 
9 2 6.16694 1.02441 13.0472 
149 2 6.99834 6.62642 10.7429 
140 2 6.19342 6.51789 0.125511 
34 1 4.72186 3.32542 10.9434 
83 1 5.99495 9.97091 1.7172 
65 1 4.83189 7.37393 0.407996 
104 2 5.17199 8.5932 1.42551 
138 2 4.89934 11.0729 2.25155 
148 2 1.01255 7.09407 1.26868 
142 2 6.79993 10.2794 0.33072 
96 1 3.40894 7.35599 4.49409 
78 1 3.86207 11.5261 3.41519 
118 2 4.66769 11.0841 4.86194 
125 2 6.53136 12.9254 4.09579 
115 2 2.43086 7.77818 3.29145 
87 2 2.3678 10.921 3.36708 
121 2 7.0205 9.78017 2.99418 
61 2 6.7295 8.18339 5.01925 
39 2 3.74367 13.1401 3.4829 
92 1 0.772971 10.6119 3.67827 
102 2 0.750296 10.5628 5.3176 
58 1 6.07381 11.9653 5.30144 
89 1 0.854575 7.6588 2.7971 
137 2 7.17496 10.7936 5.41545 
132 2 3.80085 8.6973 5.36078 
90 2 2.88599 10.7643 6.77551 
80 1 4.18638 10.0498 6.14092 
67 1 1.35269 11.3134 6.63465 
41 2 5.28387 9.89514 7.32024 
12 2 1.50208 12.9118 6.37968 
44 2 5.50119 12.8326 6.52977 
24 2 0.465468 10.9976 7.9412 
120 2 5.67723 10.8684 9.81033 
75 1 5.63705 9.52491 8.8782 
28 2 4.42169 8.61541 9.47088 
48 1 5.51084 12.4223 10.254 
49 2 7.02607 13.0454 10.3985 
97 1 3.59624 7.81959 10.6235 
136 2 7.0304 8.72426 9.12553 
133 2 4.77123 0.0261206 9.023 
37 2 4.39844 7.88845 12.0496 
108 2 4.65013 12.7172 11.6074 
15 2 2.106 8.43597 10.8399 
25 1 12.9336 0.94144 0.535791 
109 2 8.75995 5.12788 1.79848 
11 1 7.68014 1.26794 0.435824 
99 2 7.79786 0.493585 1.86551 
135 2 11.8813 0.516259 1.7293 
74 2 7.92627 2.82461 0.795931 
63 1 8.79874 4.17019 0.497215 
126 2 9.79534 6.78483 3.62119 
51 2 7.75725 2.12653 4.05132 
88 2 9.37471 4.17235 4.21688 
84 1 8.63693 3.01217 5.09927 
17 1 8.88006 5.48155 3.3731 
122 2 7.39383 5.86444 3.96478 
5 2 11.1588 0.361361 4.32316 
93 1 0.416001 3.26595 5.0164 
81 2 12.1877 2.52135 5.44052 
43 2 11.7203 0.533509 6.96311 
4 2 7.71976 3.82097 6.17795 
103 2 8.35153 6.09557 7.33312 
129 2 9.66245 1.98345 5.831 
22 1 11.1268 1.30072 5.6469 
7 1 7.11613 5.06913 7.05744 
144 2 0.666337 4.57934 5.91529 
2 1 9.67788 6.2551 8.29011 
76 2 8.50651 2.57196 9.04009 
13 1 10.0128 3.1821 9.30394 
23 2 9.89668 4.77125 8.93838 
106 2 11.2659 2.53322 8.47662 
86 1 12.3673 1.34885 8.24548 
6 2 12.3154 0.358132 9.53203 
30 2 8.0468 4.85454 12.3708 
111 2 12.4376 4.45269 11.9097 
57 1 11.3729 3.23284 12.1871 
98 2 12.1288 1.83916 12.5834 
123 2 8.64118 0.783881 12.3824 
35 2 10.4447 3.02023 10.8631 
85 1 0.391412 5.52985 11.3912 
119 2 10.3248 3.70211 0.191363 
145 2 11.8261 10.7529 0.756286 
141 2 9.3378 9.95605 0.608763 
18 1 10.5442 10.2953 1.64478 
147 2 10.7989 9.01847 2.60223 
53 2 10.3392 11.6222 2.59489 
105 2 9.14982 9.13111 4.54642 
150 2 12.9029 11.8077 3.25272 
82 1 10.4209 8.24009 3.97664 
47 1 7.58166 9.48841 4.52474 
66 2 11.5155 8.08006 5.14632 
8 1 11.5297 12.6809 2.9812 
46 2 0.373822 9.20585 2.98766 
143 2 0.155872 6.54603 3.69975 
91 1 12.0312 7.64651 6.62359 
29 2 11.9259 9.04815 7.45189 
64 2 10.9447 6.66263 7.36379 
134 2 0.388461 7.04023 6.81032 
69 2 11.2275 11.1519 9.01106 
27 1 7.9133 7.88602 10.2187 
130 2 9.24756 7.30324 9.47647 
26 1 11.2639 12.3902 10.0639 
114 2 12.9281 9.277 9.8263 
45 1 12.3851 10.1184 8.55022 
60 2 9.79207 13.0625 10.1677 
59 1 8.48913 12.9258 11.1119 
38 1 8.18426 10.0695 12.6162 
100 2 8.13828 8.8288 11.549 
3 2 11.7801 11.7406 11.4665 
107 2 8.47431 11.4194 11.754 
73 1 12.7713 11.2386 12.6812 
1 2 13.0815 7.10786 11.3066 
31 2 0.343043 12.6475 13.1365 
10 2 0.392147 9.87251 12.2217 
71 1 0.513049 8.644 11.1323 
