ITEM: TIMESTEP
0
ITEM: NUMBER OF ATOMS
150
ITEM: BOX BOUNDS pp pp pp
-9.1486610934002205e-03 1.3055213996246097e+01
-9.1486610934002205e-03 1.3055213996246097e+01
-9.1486610934002205e-03 1.3055213996246097e+01
ITEM: ATOMS id type x y z 
70 2 1.69481 2.67887 1.76323 
128 2 3.73273 4.35628 1.22419 
40 1 3.80265 12.4919 2.82165 
32 1 1.3477 1.26119 2.45722 
50 1 2.16557 4.01346 0.986681 
101 2 3.72851 11.9242 1.28522 
95 2 0.720708 0.104954 1.48491 
62 2 2.75226 0.62545 2.99587 
124 2 5.3492 12.9144 3.11505 
55 1 6.75692 12.2898 3.6469 
54 1 6.22072 4.6356 4.9221 
21 2 4.81096 4.72657 4.14068 
14 2 0.305477 1.49098 3.67333 
68 2 2.56483 4.31735 5.57244 
72 2 2.31097 3.31353 7.94577 
94 1 1.89509 12.4798 6.90273 
36 2 3.4869 12.5818 7.24426 
146 2 6.0135 3.9396 6.38535 
19 1 1.45322 3.91112 6.68505 
20 1 4.95088 12.1178 7.78504 
113 2 6.09808 0.199049 7.96152 
79 2 0.784527 12.8678 8.06645 
42 2 1.45713 0.382862 5.68127 
127 2 3.4976 2.00283 10.1484 
33 1 2.55863 3.19804 9.54484 
116 2 5.90779 0.863619 10.4485 
112 2 1.03221 3.226 10.1557 
131 2 6.67556 2.65897 8.75562 
56 2 3.32638 4.54481 10.0869 
52 1 6.84392 1.06409 9.13141 
139 2 4.13835 0.568265 12.3236 
117 2 5.45929 2.93996 11.8376 
77 1 4.5529 12.1903 12.9763 
110 2 1.8815 3.68179 12.4818 
16 1 6.75294 3.89566 12.1534 
9 2 6.11004 12.3827 0.387123 
149 2 7.07689 4.92037 10.932 
140 2 6.33307 4.73461 0.431513 
34 1 4.67896 1.63782 11.2167 
83 1 5.87488 8.03791 2.04063 
65 1 4.87614 5.39988 0.744711 
104 2 5.09271 6.63446 1.77277 
138 2 4.76293 9.09145 2.63152 
148 2 1.26627 5.34362 1.31509 
142 2 6.61101 8.3797 0.623642 
96 1 3.41368 5.35445 4.66757 
78 1 3.78354 9.61564 3.81297 
118 2 4.58416 9.14931 5.24819 
125 2 6.41252 10.8712 4.37057 
115 2 2.40331 5.85576 3.51751 
87 2 2.29921 9.00269 3.83847 
121 2 6.99259 7.8654 3.24155 
61 2 6.74914 6.16132 5.16616 
39 2 3.58503 11.2188 3.82126 
92 1 0.68307 8.74124 3.96871 
102 2 0.489848 8.66148 5.59404 
58 1 6.04697 9.94802 5.64673 
89 1 0.894018 5.86211 2.83186 
137 2 7.12113 8.74533 5.69565 
132 2 3.84585 6.63843 5.61062 
90 2 2.69452 8.59295 6.98742 
80 1 4.08853 8.00825 6.42246 
67 1 1.25093 9.35069 6.8605 
41 2 5.18163 7.99786 7.61474 
12 2 1.60176 10.9086 6.52433 
44 2 5.59726 10.9281 6.84972 
24 2 0.409178 9.22093 8.23275 
120 2 5.6865 9.20114 9.98324 
75 1 5.68075 7.78808 9.16321 
28 2 4.5755 6.84339 9.88944 
48 1 5.48171 10.7354 10.4945 
49 2 6.99251 11.3489 10.7137 
97 1 3.62057 5.95548 10.8512 
136 2 7.12378 7.05448 9.32318 
133 2 4.71989 11.4877 9.27006 
37 2 4.34448 5.86191 12.3157 
108 2 4.63573 11.0002 11.8633 
15 2 2.15175 6.62468 11.054 
25 1 12.7074 12.1287 0.848724 
109 2 8.94382 3.41243 2.05932 
11 1 7.61214 12.7123 0.915854 
99 2 7.73274 11.9984 2.3743 
135 2 11.5846 11.681 1.97382 
74 2 7.81397 1.22747 1.19585 
63 1 8.82656 2.43915 0.774719 
126 2 9.83675 4.67089 4.22923 
51 2 7.39335 0.263707 4.70087 
88 2 9.28821 2.02925 4.38276 
84 1 8.53643 1.09412 5.49849 
17 1 8.9242 3.46028 3.6778 
122 2 7.38563 3.81501 4.14688 
5 2 10.9755 11.5102 4.61547 
93 1 0.224865 1.40725 5.28106 
81 2 11.9285 0.649224 5.73243 
43 2 11.6618 11.6641 7.22074 
4 2 7.91772 2.12756 6.58624 
103 2 8.28636 4.48305 7.64619 
129 2 9.47608 13.0324 6.20092 
22 1 10.9582 12.4205 5.95752 
7 1 7.15483 3.35009 7.36868 
144 2 0.458286 2.75708 6.13115 
2 1 9.68124 4.52722 8.51682 
76 2 8.44445 0.808251 9.31386 
13 1 9.973 1.40604 9.459 
23 2 9.86579 2.99472 9.06884 
106 2 11.1871 0.660981 8.64008 
86 1 12.303 12.5299 8.47467 
6 2 12.2341 11.5846 9.7923 
30 2 8.12014 3.08584 12.5154 
111 2 12.4782 2.57472 12.1559 
57 1 11.3519 1.39098 12.3587 
98 2 11.9831 12.9938 12.7304 
123 2 8.56472 12.2565 12.747 
35 2 10.4622 1.28519 11.0029 
85 1 0.47929 3.68728 11.6211 
119 2 10.2946 1.83291 0.450162 
145 2 11.6678 8.73267 1.06991 
141 2 9.15782 8.00734 0.975769 
18 1 10.4237 8.20054 1.97292 
147 2 10.6869 6.83645 2.80317 
53 2 10.2703 9.48794 2.99411 
105 2 9.15437 7.10984 4.78909 
150 2 12.8166 9.98284 3.48516 
82 1 10.4412 6.17632 4.27305 
47 1 7.58793 7.49727 4.74496 
66 2 11.6231 6.25541 5.36761 
8 1 11.3479 10.6963 3.2618 
46 2 0.403204 7.39447 3.11666 
143 2 13.0068 4.75605 3.4749 
91 1 12.0726 5.85526 6.87031 
29 2 11.9347 7.22112 7.73989 
64 2 10.9418 4.88884 7.56465 
134 2 0.512545 5.21794 7.02006 
69 2 11.0712 9.25251 9.34965 
27 1 7.98434 6.18593 10.4094 
130 2 9.34312 5.57473 9.73572 
26 1 11.1674 10.5088 10.3852 
114 2 12.857 7.47102 10.1608 
45 1 12.2892 8.2931 8.87781 
60 2 9.73203 11.2385 10.5596 
59 1 8.41833 11.2135 11.5002 
38 1 8.04362 8.28773 12.8892 
100 2 8.12608 7.14817 11.7276 
3 2 11.7045 9.84101 11.7685 
107 2 8.33554 9.73272 12.2011 
73 1 12.6666 9.29817 12.987 
1 2 0.0218199 5.26595 11.6385 
31 2 0.311261 10.6985 0.395404 
10 2 0.468406 7.98987 12.5576 
71 1 0.576457 6.80591 11.4331 
