ITEM: TIMESTEP
0
ITEM: NUMBER OF ATOMS
150
ITEM: BOX BOUNDS pp pp pp
-2.1533584134145328e-03 1.3043252235741519e+01
-2.1533584134145328e-03 1.3043252235741519e+01
-2.1533584134145328e-03 1.3043252235741519e+01
ITEM: ATOMS id type x y z 
70 2 1.89746 5.26327 2.63286 
128 2 3.91923 6.98839 2.12232 
40 1 3.99759 1.98958 3.73173 
32 1 1.55089 3.86093 3.35622 
50 1 2.35609 6.62269 1.89207 
101 2 3.94643 1.38476 2.20627 
95 2 0.87716 2.68112 2.44513 
62 2 2.95544 3.2017 3.87369 
124 2 5.55141 2.42357 3.97094 
55 1 6.94046 1.78682 4.53788 
54 1 6.32372 7.19049 5.84064 
21 2 4.87939 7.25416 5.1163 
14 2 0.524852 4.12881 4.57581 
68 2 2.66734 6.78182 6.5646 
72 2 2.36581 5.73975 8.87794 
94 1 2.07646 2.03478 7.83607 
36 2 3.667 2.07407 8.20495 
146 2 6.14925 6.50926 7.31615 
19 1 1.51566 6.39453 7.64278 
20 1 5.14914 1.58736 8.68313 
113 2 6.29433 2.73455 8.86644 
79 2 0.945679 2.44441 8.96935 
42 2 1.6843 2.99059 6.58611 
127 2 3.64681 4.53251 11.0888 
33 1 2.68123 5.69967 10.4674 
116 2 6.07501 3.37409 11.3598 
112 2 1.16058 5.7867 11.0931 
131 2 6.79781 5.19088 9.66865 
56 2 3.48254 7.06491 10.9003 
52 1 7.01531 3.60323 10.0489 
139 2 4.33573 3.11444 0.212625 
117 2 5.64918 5.48346 12.7087 
77 1 4.78508 1.67281 0.84449 
110 2 2.06195 6.33613 0.317281 
16 1 6.92474 6.48185 12.9725 
9 2 6.34713 1.8682 1.2995 
149 2 7.25083 7.45858 11.7085 
140 2 6.48043 7.38531 1.21974 
34 1 4.85681 4.16811 12.1271 
83 1 6.0692 10.6769 2.87091 
65 1 5.02324 8.03416 1.55787 
104 2 5.24967 9.30373 2.5421 
138 2 4.96356 11.7215 3.49329 
148 2 1.42021 7.90651 2.28313 
142 2 6.86417 11.0416 1.49045 
96 1 3.48757 7.86109 5.68888 
78 1 3.9541 12.1656 4.68441 
118 2 4.73984 11.6525 6.11301 
125 2 6.54261 0.361548 5.22103 
115 2 2.44686 8.36101 4.56329 
87 2 2.48152 11.512 4.68157 
121 2 7.14987 10.4363 4.08983 
61 2 6.85232 8.73039 6.00854 
39 2 3.75578 0.728031 4.74975 
92 1 0.859821 11.2658 4.85683 
102 2 0.701301 11.2362 6.48837 
58 1 6.19549 12.4797 6.50349 
89 1 0.976035 8.37161 3.79563 
137 2 7.29898 11.3074 6.54955 
132 2 3.93202 9.14697 6.63174 
90 2 2.86335 11.2132 7.91284 
80 1 4.2258 10.569 7.3367 
67 1 1.40598 11.9428 7.7793 
41 2 5.36135 10.6469 8.48965 
12 2 1.72068 0.468489 7.47996 
44 2 5.75822 0.423678 7.69844 
24 2 0.531425 11.7462 9.11858 
120 2 5.92333 11.6694 10.972 
75 1 5.87765 10.3426 10.0148 
28 2 4.76399 9.35148 10.6649 
48 1 5.73698 0.185706 11.4097 
49 2 7.2427 0.810834 11.6142 
97 1 3.77427 8.49589 11.6209 
136 2 7.31558 9.58959 10.0859 
133 2 4.99276 0.893209 10.1485 
37 2 4.44497 8.43033 0.0657372 
108 2 4.87053 0.506489 12.753 
15 2 2.30616 9.17991 11.7742 
25 1 12.8377 1.64618 1.81384 
109 2 9.08809 6.01687 2.99282 
11 1 7.84141 2.2432 1.8301 
99 2 7.97673 1.55536 3.3022 
135 2 11.7008 1.21142 2.92581 
74 2 7.98011 3.83646 2.06959 
63 1 8.9922 5.06472 1.69003 
126 2 9.9476 7.22285 5.18794 
51 2 7.52277 2.77485 5.66977 
88 2 9.38254 4.56272 5.27904 
84 1 8.67852 3.62635 6.42735 
17 1 9.0388 6.01779 4.61394 
122 2 7.49205 6.35904 5.07545 
5 2 11.0577 0.889575 5.5387 
93 1 0.398306 3.94232 6.16664 
81 2 12.1292 3.07307 6.53822 
43 2 11.8083 1.14315 8.15305 
4 2 8.06706 4.66437 7.51693 
103 2 8.41101 7.02218 8.54734 
129 2 9.66073 2.52506 7.10789 
22 1 11.1092 1.83945 6.85124 
7 1 7.28346 5.88495 8.28524 
144 2 0.497474 5.27459 7.06698 
2 1 9.83058 7.06801 9.36769 
76 2 8.61623 3.3837 10.2637 
13 1 10.1481 3.97984 10.3874 
23 2 10.0194 5.55873 9.96804 
106 2 11.3429 3.23471 9.54464 
86 1 12.4605 2.04753 9.37537 
6 2 12.4526 1.11963 10.7063 
30 2 8.30569 5.72705 0.361906 
111 2 12.6461 5.18667 0.0954064 
57 1 11.5297 3.9868 0.256144 
98 2 12.1487 2.51693 0.614194 
123 2 8.79992 1.76177 0.61144 
35 2 10.6696 3.90225 11.9239 
85 1 0.631372 6.30056 12.5477 
119 2 10.4514 4.4198 1.39599 
145 2 11.8928 11.1782 1.91812 
141 2 9.38079 10.475 1.78687 
18 1 10.6255 10.6831 2.80634 
147 2 10.8406 9.32658 3.65907 
53 2 10.4282 11.9916 3.78992 
105 2 9.28806 9.67523 5.62361 
150 2 12.9469 12.491 4.37064 
82 1 10.5709 8.72295 5.14492 
47 1 7.7229 10.0516 5.59268 
66 2 11.7532 8.87056 6.23226 
8 1 11.472 0.153594 4.15388 
46 2 0.514478 9.91956 4.03242 
143 2 13.0417 7.2702 4.40003 
91 1 12.1682 8.40014 7.72415 
29 2 11.9851 9.74626 8.62138 
64 2 11.048 7.38519 8.35141 
134 2 0.612301 7.74111 7.92362 
69 2 11.2045 11.8555 10.2234 
27 1 8.15192 8.73942 11.2032 
130 2 9.53804 8.156 10.5622 
26 1 11.3686 0.0485478 11.2718 
114 2 12.9372 10.0016 11.0016 
45 1 12.3645 10.8361 9.73373 
60 2 9.96522 0.836936 11.4391 
59 1 8.67258 0.73198 12.3985 
38 1 8.27142 10.8368 0.658436 
100 2 8.24762 9.70775 12.5256 
3 2 11.895 12.3985 12.6429 
107 2 8.6693 12.2713 -0.000640041 
73 1 12.8643 11.8475 0.805219 
1 2 0.180561 7.87675 12.5286 
31 2 0.446849 0.204636 1.37443 
10 2 0.737972 10.6102 0.285517 
71 1 0.758341 9.39227 12.2366 
