ITEM: TIMESTEP
0
ITEM: NUMBER OF ATOMS
150
ITEM: BOX BOUNDS pp pp pp
1.6100734272033179e-03 1.3058498915602506e+01
1.6100734272033179e-03 1.3058498915602506e+01
1.6100734272033179e-03 1.3058498915602506e+01
ITEM: ATOMS id type x y z 
70 2 1.51167 4.08898 1.25037 
128 2 3.59448 5.66515 0.731816 
40 1 3.78393 0.775642 2.20645 
32 1 1.30783 2.56195 1.72585 
50 1 2.02121 5.4015 0.46425 
101 2 3.68817 0.0903214 0.716034 
95 2 0.791995 1.48562 0.615613 
62 2 2.73528 1.99208 2.28709 
124 2 5.34951 1.16025 2.45366 
55 1 6.74901 0.51968 3.01153 
54 1 5.97547 5.8654 4.37441 
21 2 4.54278 5.94329 3.62105 
14 2 0.217967 2.53899 2.92461 
68 2 2.68287 6.04578 5.51503 
72 2 2.09585 4.39316 7.40164 
94 1 1.86936 0.709964 6.35308 
36 2 3.47022 0.915578 6.59237 
146 2 5.79239 5.15243 5.83364 
19 1 1.45245 5.18023 6.12375 
20 1 4.88898 0.415563 7.20354 
113 2 6.03939 1.53456 7.43807 
79 2 0.786996 1.1132 7.54061 
42 2 1.38191 1.54157 5.04816 
127 2 3.37677 3.2652 9.61196 
33 1 2.41194 4.43259 8.994 
116 2 5.85208 2.1905 9.95973 
112 2 0.904163 4.52376 9.64548 
131 2 6.56844 3.9525 8.23433 
56 2 3.18361 5.81287 9.44491 
52 1 6.77958 2.36729 8.63077 
139 2 4.00877 1.79247 11.75 
117 2 5.24626 4.24162 11.3204 
77 1 4.4645 0.34738 12.3703 
110 2 1.75593 5.06086 11.9513 
16 1 6.54305 5.20739 11.5879 
9 2 6.03428 0.548818 12.7974 
149 2 6.83304 6.24577 10.3685 
140 2 6.15534 6.05279 12.9377 
34 1 4.55403 2.8994 10.6834 
83 1 5.72507 9.31474 1.52837 
65 1 4.69649 6.71223 0.179963 
104 2 4.8649 7.96529 1.20168 
138 2 4.6895 10.4304 2.14835 
148 2 1.16932 6.75867 0.780161 
142 2 6.47606 9.66669 0.120931 
96 1 3.20855 6.71348 4.13211 
78 1 3.66388 11.0046 3.27039 
118 2 4.42011 10.618 4.74084 
125 2 6.34354 12.2207 3.82354 
115 2 1.90153 6.78098 3.1887 
87 2 2.1884 10.3617 3.26516 
121 2 6.83813 9.06265 2.71546 
61 2 6.54643 7.3812 4.63604 
39 2 3.50105 12.6133 3.25622 
92 1 0.566133 10.0907 3.3804 
102 2 0.339157 10.0905 5.00728 
58 1 5.93439 11.3061 5.09134 
89 1 0.553676 7.11081 2.27325 
137 2 6.90986 10.0234 5.13305 
132 2 3.75605 8.18634 4.60619 
90 2 2.5136 9.72001 6.36968 
80 1 3.9432 9.32265 5.73673 
67 1 1.15446 10.6281 6.31364 
41 2 5.00621 9.16823 6.94712 
12 2 1.64993 12.1637 6.08395 
44 2 5.56581 12.2564 6.33791 
24 2 0.330854 10.5242 7.69668 
120 2 5.50328 10.4938 9.26396 
75 1 5.51164 9.04189 8.50436 
28 2 4.42169 8.12035 9.28488 
48 1 5.33495 12.012 9.82834 
49 2 6.84223 12.6535 9.99086 
97 1 3.47237 7.21473 10.2368 
136 2 6.96848 8.35646 8.74639 
133 2 4.55449 12.8425 8.66849 
37 2 4.15014 7.10428 11.7275 
108 2 4.53333 12.2385 11.2311 
15 2 2.00743 7.89393 10.441 
25 1 12.6923 0.459837 0.101751 
109 2 8.68236 4.73062 1.44004 
11 1 7.53593 0.894503 0.265213 
99 2 7.68292 0.167419 1.71945 
135 2 11.6406 0.0925011 1.31031 
74 2 7.69431 2.47677 0.559436 
63 1 8.64838 3.74366 0.163786 
126 2 9.54422 6.12087 3.53294 
51 2 7.40488 1.55382 4.06397 
88 2 9.15791 3.45066 3.78858 
84 1 8.45827 2.46928 4.89627 
17 1 8.6953 4.83701 3.0535 
122 2 7.14473 5.07677 3.56821 
5 2 11.0642 0.0932836 3.92301 
93 1 0.324217 2.68598 4.52499 
81 2 11.9743 2.24838 5.20853 
43 2 11.6953 0.0607439 6.52912 
4 2 7.76669 3.43489 6.00476 
103 2 8.03664 5.81064 7.06383 
129 2 9.5152 1.45635 5.60037 
22 1 11.0187 0.925517 5.31731 
7 1 6.96437 4.61727 6.80973 
144 2 0.901361 4.10266 5.03928 
2 1 9.43571 5.84106 7.91859 
76 2 8.38089 2.08589 8.74753 
13 1 9.89464 2.73557 8.84976 
23 2 9.68907 4.29156 8.38128 
106 2 11.1639 1.99707 8.10785 
86 1 12.2723 0.795183 7.89444 
6 2 12.0853 12.8421 9.15135 
30 2 7.92329 4.39837 11.9081 
111 2 12.3542 3.94447 11.6714 
57 1 11.209 2.77763 11.7841 
98 2 11.8662 1.30497 12.0352 
123 2 8.46206 0.490497 12.0476 
35 2 10.3442 2.75471 10.4101 
85 1 0.353801 5.03225 11.0931 
119 2 10.1369 3.16299 12.942 
145 2 11.5696 10.1529 0.484201 
141 2 9.04234 9.53385 0.399549 
18 1 10.2907 9.7628 1.41571 
147 2 10.4981 8.45136 2.33925 
53 2 10.1709 11.1109 2.35801 
105 2 8.96905 8.45681 4.35035 
150 2 12.7262 11.3439 2.8501 
82 1 10.2412 7.58106 3.69334 
47 1 7.38215 8.73101 4.24759 
66 2 11.4596 7.51585 4.75847 
8 1 11.3489 12.2229 2.62057 
46 2 0.298816 8.69928 2.59291 
143 2 12.3846 6.129 2.53274 
91 1 11.8905 7.06965 6.25554 
29 2 11.9853 8.45293 7.09998 
64 2 10.6607 6.25429 6.95155 
134 2 0.218375 6.21567 6.41931 
69 2 10.9441 10.5085 8.63833 
27 1 7.78588 7.48863 9.86801 
130 2 9.12308 6.83939 9.18239 
26 1 11.0128 11.7472 9.70188 
114 2 12.7051 8.7412 9.55866 
45 1 12.1966 9.55166 8.25052 
60 2 9.57283 12.4634 9.88559 
59 1 8.2476 12.5035 10.8087 
38 1 7.8783 9.62951 12.3226 
100 2 7.95104 8.43818 11.201 
3 2 11.5435 11.0724 11.0876 
107 2 8.06809 11.0418 11.5343 
73 1 12.5338 10.6308 12.3255 
1 2 12.9201 6.59333 11.083 
31 2 0.204537 12.0496 12.7025 
10 2 0.351501 9.31875 11.9341 
71 1 0.442679 8.11229 10.8368 
