ITEM: TIMESTEP
0
ITEM: NUMBER OF ATOMS
150
ITEM: BOX BOUNDS pp pp pp
1.6751785506394861e-03 1.3055615041519543e+01
1.6751785506394861e-03 1.3055615041519543e+01
1.6751785506394861e-03 1.3055615041519543e+01
ITEM: ATOMS id type x y z 
70 2 1.18935 3.91689 0.723016 
128 2 3.14563 5.73646 0.394763 
40 1 3.44068 0.810611 1.97981 
32 1 0.95062 2.57373 1.58288 
50 1 1.59873 5.34546 0.0952775 
101 2 3.33685 0.160262 0.474146 
95 2 0.28263 1.30707 0.792357 
62 2 2.4099 2.03754 2.08678 
124 2 5.00418 1.21084 2.21203 
55 1 6.37723 0.557833 2.8064 
54 1 5.7273 5.90504 4.05284 
21 2 4.31348 6.00126 3.27625 
14 2 13.0145 2.92892 2.80905 
68 2 2.08097 5.7145 4.71521 
72 2 1.91332 4.71214 7.08888 
94 1 1.5156 0.757202 6.01951 
36 2 3.09799 0.80899 6.4018 
146 2 5.56874 5.27975 5.55303 
19 1 0.995838 5.25879 5.83848 
20 1 4.56996 0.370208 6.93651 
113 2 5.71181 1.52112 7.09446 
79 2 0.407161 1.11443 7.19186 
42 2 1.15083 1.75134 4.79373 
127 2 3.07585 3.30808 9.26571 
33 1 2.14056 4.52934 8.68764 
116 2 5.52844 2.20013 9.60137 
112 2 0.590538 4.53964 9.252 
131 2 6.23211 3.98445 7.8982 
56 2 2.89986 5.86714 9.2542 
52 1 6.44355 2.39425 8.26696 
139 2 3.74758 1.79264 11.4391 
117 2 4.91893 4.2323 11.0237 
77 1 4.16323 0.371851 12.145 
110 2 1.34097 5.16889 11.5563 
16 1 6.16267 5.2573 11.3014 
9 2 5.72794 0.523347 12.6195 
149 2 6.4468 6.25272 10.0433 
140 2 5.71032 6.12401 12.6151 
34 1 4.24064 2.90364 10.3459 
83 1 5.3296 9.43668 1.14895 
65 1 4.26029 6.80076 12.9443 
104 2 4.49305 8.06158 0.886284 
138 2 4.28215 10.5407 1.75912 
148 2 0.621283 6.5698 0.566287 
142 2 6.10086 9.76954 12.8023 
96 1 2.94435 6.71071 3.77871 
78 1 3.30214 11.016 2.96259 
118 2 4.0959 10.5093 4.38349 
125 2 5.98479 12.1965 3.51114 
115 2 1.95923 7.27816 2.63744 
87 2 1.82674 10.3693 2.95547 
121 2 6.42525 9.20781 2.35492 
61 2 6.30282 7.42371 4.22736 
39 2 3.17953 12.6298 3.02608 
92 1 0.208958 10.0709 3.08794 
102 2 0.0354317 10.0453 4.71956 
58 1 5.58359 11.2627 4.77058 
89 1 0.398275 7.16016 2.07926 
137 2 6.61644 10.0263 4.81034 
132 2 3.44249 7.98454 4.70614 
90 2 2.22558 9.88575 6.12833 
80 1 3.63146 9.34373 5.54655 
67 1 0.818364 10.7079 5.98788 
41 2 4.73681 9.37302 6.72671 
12 2 1.19517 12.2508 5.61511 
44 2 5.18669 12.2317 5.99506 
24 2 13.0279 10.6395 7.36329 
120 2 5.28966 10.4862 9.14407 
75 1 5.22706 9.11011 8.26643 
28 2 4.07492 8.19734 8.96864 
48 1 5.07833 12.0146 9.66106 
49 2 6.57425 12.6325 9.92103 
97 1 3.10172 7.33157 9.93729 
136 2 6.6481 8.33553 8.41008 
133 2 4.36783 12.8009 8.42918 
37 2 3.71553 7.27186 11.4551 
108 2 4.2101 12.2433 11.0218 
15 2 1.60416 7.96576 10.0111 
25 1 12.2192 0.376156 0.0620954 
109 2 8.42751 4.72541 1.18576 
11 1 7.21715 0.946105 0.0793367 
99 2 7.39706 0.299508 1.56284 
135 2 11.0334 12.9998 1.12299 
74 2 7.34918 2.54949 0.232326 
63 1 8.32538 3.80818 12.9113 
126 2 9.29459 5.99098 3.34406 
51 2 6.96145 1.55642 3.92819 
88 2 8.817 3.32265 3.49702 
84 1 8.11073 2.42418 4.67489 
17 1 8.41194 4.74787 2.80442 
122 2 6.86626 5.03581 3.28873 
5 2 10.4177 12.8038 3.73374 
93 1 12.9364 2.73918 4.40343 
81 2 11.6103 1.87496 4.7623 
43 2 11.2672 12.9758 6.33484 
4 2 7.50368 3.48136 5.74454 
103 2 7.85081 5.82131 6.82182 
129 2 9.12079 1.36652 5.38071 
22 1 10.554 0.670251 5.06557 
7 1 6.72148 4.69416 6.52559 
144 2 0.0544833 4.03311 5.34586 
2 1 9.22307 5.85647 7.72811 
76 2 8.0459 2.13324 8.41128 
13 1 9.58364 2.7107 8.55329 
23 2 9.44499 4.30996 8.21633 
106 2 10.821 2.0226 7.71827 
86 1 11.9085 0.796301 7.58817 
6 2 11.7723 12.9682 8.94329 
30 2 7.58087 4.5269 11.6497 
111 2 11.989 3.94815 11.2432 
57 1 10.9016 2.73596 11.4794 
98 2 11.5807 1.32648 11.9481 
123 2 8.1941 0.461377 11.9352 
35 2 10.059 2.55458 10.1009 
85 1 13.017 5.06938 10.664 
119 2 9.80034 3.22581 12.5742 
145 2 11.1238 9.99928 0.118493 
141 2 8.61398 9.24054 0.164615 
18 1 9.93376 9.45909 1.08905 
147 2 10.2581 8.09571 1.90779 
53 2 9.76043 10.7546 2.09434 
105 2 8.64236 8.47821 3.80419 
150 2 12.2752 11.2631 2.57935 
82 1 9.91068 7.49572 3.38553 
47 1 7.06541 8.80599 3.82265 
66 2 11.0473 7.5697 4.52326 
8 1 10.8001 11.9846 2.3848 
46 2 12.9459 8.70202 2.28138 
143 2 12.7219 6.04104 2.95175 
91 1 11.5757 7.2091 6.01389 
29 2 11.4853 8.63944 6.7875 
64 2 10.4798 6.2819 6.80449 
134 2 0.00429437 6.52684 6.17671 
69 2 10.5737 10.6908 8.36943 
27 1 7.4298 7.47623 9.55933 
130 2 8.82077 6.85451 8.96841 
26 1 10.6922 11.8781 9.48034 
114 2 12.2989 8.86929 9.20862 
45 1 11.7936 9.7238 7.92508 
60 2 9.26831 12.608 9.68527 
59 1 8.00708 12.4956 10.6814 
38 1 7.54604 9.58559 12.0403 
100 2 7.5374 8.4408 10.8803 
3 2 11.234 11.1413 10.8231 
107 2 7.97384 10.996 11.3442 
73 1 12.1582 10.5918 12.0666 
1 2 12.5055 6.62936 10.623 
31 2 12.8267 11.9895 12.6073 
10 2 13.04 9.29802 11.6102 
71 1 0.0414544 8.15649 10.4341 
