ITEM: TIMESTEP
0
ITEM: NUMBER OF ATOMS
150
ITEM: BOX BOUNDS pp pp pp
-1.0140272746950174e-03 1.3041990153889488e+01
-1.0140272746950174e-03 1.3041990153889488e+01
-1.0140272746950174e-03 1.3041990153889488e+01
ITEM: ATOMS id type x y z 
70 2 1.86772 5.4154 2.54558 
128 2 3.88371 7.12427 1.97166 
40 1 3.89854 2.18982 3.64918 
32 1 1.47882 4.05524 3.32609 
50 1 2.32782 6.72988 1.7326 
101 2 3.83414 1.664 2.09675 
95 2 0.812904 2.87401 2.41165 
62 2 2.85928 3.38621 3.88902 
124 2 5.44497 2.62839 3.91439 
55 1 6.83607 2.02498 4.50265 
54 1 6.1894 7.36498 5.7232 
21 2 4.75281 7.50453 4.99697 
14 2 0.455458 4.3727 4.53426 
68 2 2.49479 7.12579 6.41997 
72 2 2.4258 6.04797 8.72056 
94 1 1.97495 2.14724 7.6811 
36 2 3.5741 2.11244 8.01067 
146 2 6.01024 6.64275 7.17679 
19 1 1.44634 6.67384 7.57103 
20 1 5.05855 1.73049 8.56552 
113 2 6.1954 2.89458 8.72128 
79 2 0.878789 2.49148 8.87117 
42 2 1.63057 3.25514 6.55302 
127 2 3.64458 4.84319 10.9465 
33 1 2.70192 6.01666 10.3163 
116 2 6.01998 3.59646 11.239 
112 2 1.15637 6.07825 10.8767 
131 2 6.67579 5.35479 9.5152 
56 2 3.41675 7.41428 10.7886 
52 1 6.92271 3.77255 9.8962 
139 2 4.28923 3.37142 0.0886119 
117 2 5.61105 5.74399 12.5621 
77 1 4.7051 1.92929 0.747676 
110 2 2.05872 6.4024 0.160937 
16 1 6.84755 6.79891 12.7681 
9 2 6.26247 2.08664 1.24626 
149 2 7.19453 7.67536 11.4381 
140 2 6.32445 7.78257 0.923914 
34 1 4.82166 4.42265 12.0002 
83 1 6.05237 10.7797 2.75443 
65 1 4.85037 8.29684 1.40426 
104 2 5.08527 9.4947 2.47402 
138 2 5.06017 11.9441 3.35634 
148 2 1.37358 8.02558 2.04166 
142 2 6.83563 11.0511 1.34845 
96 1 3.34385 8.13933 5.49524 
78 1 3.97908 12.3309 4.5024 
118 2 4.69922 11.8539 5.97691 
125 2 6.50148 0.584524 5.18529 
115 2 2.32477 8.54913 4.32085 
87 2 2.53897 11.6212 4.35397 
121 2 7.12247 10.4791 3.96628 
61 2 6.78218 8.87472 5.95228 
39 2 3.69418 0.878639 4.60734 
92 1 0.918325 11.4189 4.55683 
102 2 0.782711 11.3081 6.1883 
58 1 6.1629 12.6386 6.42092 
89 1 0.874001 8.5454 3.51814 
137 2 7.25055 11.4483 6.40475 
132 2 3.7709 9.44599 6.41382 
90 2 2.81053 11.5038 7.79814 
80 1 4.14184 10.8022 7.20753 
67 1 1.30772 12.0991 7.51552 
41 2 5.29387 10.7675 8.35143 
12 2 1.54122 0.638392 7.18627 
44 2 5.71626 0.512851 7.67465 
24 2 0.306201 11.877 8.75869 
120 2 5.87673 11.9735 10.749 
75 1 5.91313 10.5944 9.86757 
28 2 4.89405 9.59152 10.6454 
48 1 5.62565 0.44548 11.311 
49 2 7.12505 1.06852 11.5559 
97 1 3.70885 8.86603 11.4668 
136 2 7.39107 9.92024 9.98108 
133 2 4.85349 1.17823 10.0832 
37 2 4.12538 8.76214 0.00117561 
108 2 4.7764 0.734553 12.6756 
15 2 2.31141 9.69147 11.3589 
25 1 12.7637 1.92328 1.66735 
109 2 8.86812 6.23578 2.84705 
11 1 7.78544 2.41146 1.7458 
99 2 7.89271 1.86004 3.27663 
135 2 11.6561 1.40855 2.77799 
74 2 8.03207 4.00822 1.76462 
63 1 8.9271 5.34972 1.49739 
126 2 9.8721 7.35281 5.01992 
51 2 7.35777 3.01363 5.6611 
88 2 9.24014 4.72723 5.10186 
84 1 8.59344 3.83436 6.3155 
17 1 8.89355 6.19365 4.46507 
122 2 7.35961 6.53859 4.95669 
5 2 11.1452 1.07274 5.41214 
93 1 0.342342 4.19199 6.12858 
81 2 12.089 3.28927 6.49387 
43 2 11.6747 1.32491 8.05513 
4 2 8.03367 4.89853 7.40604 
103 2 8.25278 7.24841 8.44211 
129 2 9.60448 2.7105 6.91035 
22 1 11.0688 2.03387 6.71607 
7 1 7.16617 6.07773 8.15473 
144 2 0.436513 5.53124 7.02008 
2 1 9.71626 7.21504 9.18217 
76 2 8.52634 3.54617 10.0969 
13 1 10.0515 4.15037 10.2682 
23 2 9.89771 5.70815 9.78171 
106 2 11.2892 3.39363 9.49605 
86 1 12.3729 2.17784 9.28548 
6 2 12.3412 1.22834 10.6012 
30 2 8.22379 6.0787 0.218606 
111 2 12.5829 5.53987 12.8796 
57 1 11.4801 4.35299 0.0983681 
98 2 12.111 2.90725 0.534246 
123 2 8.72622 1.725 0.617209 
35 2 10.5309 4.15681 11.8256 
85 1 0.667366 6.58447 12.3459 
119 2 10.455 4.87461 1.24759 
145 2 11.9169 11.3582 1.7615 
141 2 9.38726 10.7476 1.67485 
18 1 10.6615 10.8623 2.67683 
147 2 10.783 9.4815 3.51364 
53 2 10.5239 12.1459 3.70216 
105 2 9.25204 9.78027 5.51746 
150 2 0.00266097 12.7129 4.15803 
82 1 10.5383 8.83845 4.99121 
47 1 7.685 10.1597 5.49121 
66 2 11.7322 8.97759 6.07674 
8 1 11.5431 0.343602 4.01691 
46 2 0.45617 10.1128 3.72617 
143 2 12.8896 7.47181 4.09077 
91 1 12.0308 8.54501 7.60846 
29 2 11.7004 9.88154 8.47901 
64 2 10.9037 7.4805 8.11917 
134 2 0.489231 7.9652 7.9347 
69 2 11.019 12.0499 10.0416 
27 1 8.17323 8.93536 11.0283 
130 2 9.53855 8.31694 10.3824 
26 1 11.1992 0.201059 11.1317 
114 2 12.8195 10.2817 10.783 
45 1 12.1584 11.0323 9.49921 
60 2 9.83265 1.04008 11.3352 
59 1 8.55473 0.843375 12.3021 
38 1 8.25597 10.924 0.525755 
100 2 8.32839 9.75068 12.4405 
3 2 11.7026 12.546 12.5059 
107 2 8.52033 12.3262 12.7848 
73 1 12.7912 12.0968 0.608565 
1 2 0.393413 8.20162 12.3058 
31 2 0.332776 0.502011 1.10829 
10 2 0.740327 10.9462 0.0243544 
71 1 0.788663 9.75816 11.9426 
