ITEM: TIMESTEP
0
ITEM: NUMBER OF ATOMS
150
ITEM: BOX BOUNDS pp pp pp
2.3095765360231862e-03 1.3075602014652965e+01
2.3095765360231862e-03 1.3075602014652965e+01
2.3095765360231862e-03 1.3075602014652965e+01
ITEM: ATOMS id type x y z 
70 2 1.74809 5.0473 1.80578 
128 2 3.53466 7.0221 1.37245 
40 1 3.8827 1.68249 2.86707 
32 1 1.47978 3.57653 2.41679 
50 1 2.03565 6.48012 1.11997 
101 2 3.75341 0.94456 1.40518 
95 2 0.85698 2.45616 1.40568 
62 2 2.90137 2.95048 2.92066 
124 2 5.4524 2.06101 3.07166 
55 1 6.83802 1.45575 3.68638 
54 1 6.13606 6.97636 5.0566 
21 2 4.69431 7.07148 4.32503 
14 2 0.446816 3.70259 3.65568 
68 2 2.76274 6.68196 6.13891 
72 2 2.02135 5.31696 8.19289 
94 1 1.92643 1.78708 7.03734 
36 2 3.49874 1.81631 7.46944 
146 2 5.959 6.27414 6.51993 
19 1 1.43846 6.14607 6.91382 
20 1 4.94238 1.29555 8.01166 
113 2 6.09426 2.43695 8.16464 
79 2 0.762247 2.13288 8.15936 
42 2 1.61791 2.77392 5.78969 
127 2 3.19319 4.19426 10.4736 
33 1 2.3093 5.39048 9.78963 
116 2 5.79401 3.26461 10.5795 
112 2 0.792515 5.63717 10.3779 
131 2 6.69198 4.95098 8.81457 
56 2 3.2001 6.73469 10.1263 
52 1 6.79855 3.3856 9.30026 
139 2 4.06359 2.54465 12.3863 
117 2 5.09358 5.1134 12.1583 
77 1 4.53992 1.13975 13.0708 
110 2 1.72335 6.25892 12.6103 
16 1 6.4177 6.05717 12.375 
9 2 6.10829 1.38624 0.409441 
149 2 6.79805 7.01413 11.1061 
140 2 6.07674 7.04953 0.553224 
34 1 4.47139 3.78577 11.4114 
83 1 5.97712 10.501 2.07874 
65 1 4.71769 7.92619 0.743585 
104 2 5.05737 9.21181 1.67234 
138 2 4.92449 11.5874 2.73338 
148 2 0.986859 7.64837 1.55573 
142 2 6.81175 10.8349 0.713946 
96 1 3.26798 7.59284 4.89763 
78 1 3.82795 11.9733 3.8737 
118 2 4.57257 11.4915 5.33298 
125 2 6.39747 0.231108 4.65862 
115 2 2.01028 7.61811 3.88529 
87 2 2.36935 11.2808 3.79041 
121 2 7.02586 10.1587 3.30042 
61 2 6.72728 8.49139 5.24288 
39 2 3.5953 0.501984 3.96441 
92 1 0.759977 10.9893 4.03862 
102 2 0.629137 11.0237 5.67401 
58 1 6.02488 12.2626 5.83406 
89 1 0.575628 7.94155 3.11601 
137 2 7.12492 11.0853 5.7585 
132 2 3.58542 9.08149 5.53821 
90 2 2.73387 11.0225 7.17643 
80 1 4.00723 10.3392 6.45487 
67 1 1.2784 11.7497 6.98115 
41 2 5.18089 10.1533 7.55606 
12 2 1.60076 0.230793 6.61766 
44 2 5.55364 0.0551348 7.11549 
24 2 0.370657 11.6197 8.30855 
120 2 5.66766 11.3527 9.96709 
75 1 5.58506 9.94276 9.13338 
28 2 4.35032 9.09971 9.78009 
48 1 5.46246 12.8397 10.6031 
49 2 6.95264 0.42994 10.8198 
97 1 3.47005 8.1972 10.802 
136 2 6.94143 9.0926 9.42479 
133 2 4.68878 0.66199 9.4899 
37 2 4.22062 8.22025 12.2661 
108 2 4.62918 12.9846 11.9995 
15 2 1.98802 8.83819 10.9869 
25 1 12.7744 1.46566 0.832741 
109 2 8.66914 5.59861 2.16949 
11 1 7.59926 1.66478 0.996772 
99 2 7.70928 0.889937 2.42645 
135 2 11.7518 0.983786 2.0341 
74 2 7.79512 3.22774 1.36743 
63 1 8.59952 4.57629 0.924998 
126 2 9.62035 7.14912 4.16508 
51 2 7.59124 2.57424 4.56217 
88 2 9.3451 4.49666 4.52846 
84 1 8.60495 3.42036 5.50618 
17 1 8.79648 5.83025 3.76237 
122 2 7.26176 6.0883 4.30084 
5 2 11.0695 0.739233 4.62577 
93 1 0.3618 3.71109 5.26353 
81 2 12.1094 2.90695 5.74464 
43 2 11.7061 0.882077 7.24838 
4 2 7.7989 4.30527 6.60562 
103 2 8.30838 6.69484 7.56723 
129 2 9.61457 2.34693 6.19219 
22 1 11.0705 1.66377 5.95887 
7 1 7.13419 5.58037 7.38636 
144 2 0.575022 5.13965 5.97839 
2 1 9.59243 6.71606 8.58925 
76 2 8.3797 3.05498 9.5467 
13 1 9.9315 3.62096 9.56091 
23 2 9.77709 5.14493 8.98795 
106 2 11.1449 2.85435 8.76496 
86 1 12.3042 1.71113 8.54747 
6 2 12.2433 0.773526 9.87226 
30 2 7.73669 5.18136 12.7511 
111 2 12.3496 5.06088 12.4316 
57 1 11.2662 3.82749 12.5047 
98 2 11.9578 2.37901 12.8262 
123 2 8.57135 1.22651 12.8499 
35 2 10.468 3.73718 11.0901 
85 1 0.275578 6.19341 11.8232 
119 2 10.1131 4.15094 0.529614 
145 2 11.802 11.0421 1.10197 
141 2 9.32051 10.2477 0.926667 
18 1 10.5174 10.5594 1.98307 
147 2 10.7675 9.28379 2.94147 
53 2 10.3028 11.907 2.90584 
105 2 9.17325 9.54221 4.89188 
150 2 12.8616 12.1838 3.49778 
82 1 10.4153 8.54909 4.35414 
47 1 7.58614 9.82257 4.82362 
66 2 11.5369 8.45263 5.51681 
8 1 11.4544 13.0176 3.26287 
46 2 0.405905 9.54108 3.41873 
143 2 12.489 6.9248 3.50411 
91 1 12.0341 8.11291 7.02305 
29 2 11.9838 9.56287 7.75322 
64 2 10.9184 7.2148 7.8119 
134 2 0.440849 7.4224 7.20249 
69 2 10.9861 11.618 9.30932 
27 1 7.75275 8.23599 10.5621 
130 2 9.09878 7.60126 9.88042 
26 1 11.1122 12.8104 10.4141 
114 2 12.7343 9.85871 10.1814 
45 1 12.2329 10.6779 8.87398 
60 2 9.71372 0.536584 10.5648 
59 1 8.42468 0.305286 11.5113 
38 1 8.1534 10.4845 12.8914 
100 2 7.96411 9.23643 11.8522 
3 2 11.6126 12.1067 11.7919 
107 2 8.49532 11.8193 12.0194 
73 1 12.6818 11.6739 12.9659 
1 2 12.8493 7.75107 11.7753 
31 2 0.284507 0.0328811 0.290348 
10 2 0.552087 10.4461 12.4839 
71 1 0.468243 9.2022 11.4295 
