ITEM: TIMESTEP
0
ITEM: NUMBER OF ATOMS
150
ITEM: BOX BOUNDS pp pp pp
5.6040661260652437e-04 1.3049880746514157e+01
5.6040661260652437e-04 1.3049880746514157e+01
5.6040661260652437e-04 1.3049880746514157e+01
ITEM: ATOMS id type x y z 
70 2 1.88031 4.95093 2.03728 
128 2 3.84054 6.72968 1.5368 
40 1 4.00622 1.74144 3.16277 
32 1 1.55135 3.55864 2.78821 
50 1 2.28873 6.32624 1.29928 
101 2 3.87508 1.12423 1.64581 
95 2 0.899936 2.34432 1.9038 
62 2 2.96969 2.95387 3.33086 
124 2 5.56911 2.16159 3.37143 
55 1 6.9436 1.53546 3.98735 
54 1 6.3489 6.92779 5.27762 
21 2 4.92501 6.9424 4.51398 
14 2 0.514541 3.85863 3.99002 
68 2 2.66932 6.58746 5.90867 
72 2 2.4278 5.56145 8.26695 
94 1 2.13422 1.77796 7.22869 
36 2 3.72927 1.8555 7.56514 
146 2 6.1894 6.27371 6.76516 
19 1 1.55856 6.19667 7.0272 
20 1 5.17331 1.31505 8.09286 
113 2 6.34844 2.43296 8.26493 
79 2 1.02043 2.12057 8.40303 
42 2 1.6848 2.75843 6.01943 
127 2 3.67182 4.20402 10.4437 
33 1 2.70662 5.39785 9.86046 
116 2 6.13063 3.09691 10.7561 
112 2 1.17813 5.41916 10.4756 
131 2 6.83497 4.91226 9.0782 
56 2 3.46501 6.75424 10.3873 
52 1 7.05984 3.32281 9.43633 
139 2 4.36656 2.73507 12.6276 
117 2 5.56317 5.14473 12.1521 
77 1 4.72148 1.29033 0.266684 
110 2 2.00853 6.04053 12.7719 
16 1 6.82051 6.1588 12.3935 
9 2 6.29228 1.35868 0.743959 
149 2 7.10306 7.14306 11.1287 
140 2 6.39869 7.03257 0.662001 
34 1 4.85617 3.81634 11.5082 
83 1 6.01507 10.4005 2.28798 
65 1 4.96928 7.74863 0.980723 
104 2 5.21974 9.01654 1.96086 
138 2 4.92843 11.4725 2.88303 
148 2 1.33182 7.60075 1.68152 
142 2 6.81884 10.786 0.921592 
96 1 3.53061 7.6094 5.00407 
78 1 3.97155 11.9324 4.10846 
118 2 4.78915 11.3812 5.50307 
125 2 6.56518 0.0999947 4.65703 
115 2 2.56863 8.16003 3.83585 
87 2 2.49594 11.2888 4.09876 
121 2 7.0982 10.162 3.50227 
61 2 6.84129 8.47753 5.43831 
39 2 3.79585 0.491046 4.20274 
92 1 0.884679 11.0179 4.29478 
102 2 0.737269 11.0006 5.92702 
58 1 6.23647 12.1999 5.92645 
89 1 1.03367 8.12671 3.20786 
137 2 7.35852 11.0402 5.94542 
132 2 3.96392 8.89579 5.94369 
90 2 2.92626 10.936 7.29883 
80 1 4.2746 10.2791 6.70233 
67 1 1.48403 11.7008 7.19848 
41 2 5.41488 10.2809 7.85174 
12 2 1.82826 0.207061 6.85178 
44 2 5.7588 0.112828 7.135 
24 2 0.646664 11.5743 8.57444 
120 2 5.81078 11.39 10.2988 
75 1 5.85516 10.0188 9.409 
28 2 4.71273 9.04392 10.0361 
48 1 5.6294 12.9255 10.8169 
49 2 7.15296 0.449999 11.0619 
97 1 3.74816 8.21642 11.0435 
136 2 7.30303 9.30937 9.61874 
133 2 4.93969 0.674609 9.57547 
37 2 4.43242 8.18139 12.5303 
108 2 4.74395 0.130639 12.1647 
15 2 2.27955 8.9027 11.185 
25 1 12.8564 1.34495 1.22551 
109 2 8.92684 5.59598 2.34889 
11 1 7.78283 1.81307 1.22548 
99 2 7.9774 1.28481 2.75403 
135 2 11.7138 0.900248 2.32933 
74 2 7.8927 3.42698 1.29265 
63 1 8.8862 4.69325 1.00654 
126 2 10.0218 6.8655 4.41752 
51 2 7.50925 2.52106 5.13196 
88 2 9.38705 4.25385 4.67362 
84 1 8.69445 3.36157 5.86279 
17 1 9.02297 5.68288 3.9642 
122 2 7.53635 6.1077 4.53196 
5 2 11.0634 0.656454 4.94862 
93 1 0.408669 3.72057 5.58848 
81 2 12.1399 2.8484 5.95198 
43 2 11.875 0.891066 7.54156 
4 2 8.11773 4.43613 6.93504 
103 2 8.46038 6.77154 8.03194 
129 2 9.68318 2.26862 6.54722 
22 1 11.1374 1.60027 6.26474 
7 1 7.33247 5.64568 7.72093 
144 2 0.542354 5.05167 6.48815 
2 1 9.8557 6.81416 8.90084 
76 2 8.66383 3.09685 9.60823 
13 1 10.1936 3.68539 9.76698 
23 2 10.0775 5.28057 9.41656 
106 2 11.413 2.99104 8.9161 
86 1 12.5175 1.78376 8.77962 
6 2 12.4146 0.896831 10.1338 
30 2 8.2305 5.42148 12.751 
111 2 12.6208 4.89319 12.5159 
57 1 11.5125 3.69065 12.6959 
98 2 12.1765 2.25322 0.0488042 
123 2 8.75923 1.26966 0.0502568 
35 2 10.6736 3.5437 11.311 
85 1 0.615509 5.98482 11.9006 
119 2 10.3841 4.12673 0.737713 
145 2 11.8297 10.9558 1.3211 
141 2 9.32143 10.2175 1.30111 
18 1 10.6124 10.4274 2.2624 
147 2 10.9179 9.0487 3.05426 
53 2 10.4375 11.7081 3.28057 
105 2 9.26931 9.3091 4.93765 
150 2 12.9614 12.2287 3.80723 
82 1 10.588 8.38239 4.50361 
47 1 7.72713 9.77229 4.97759 
66 2 11.6787 8.4919 5.68314 
8 1 11.485 12.9291 3.58859 
46 2 0.540988 9.65734 3.49108 
143 2 0.187123 7.00737 3.9623 
91 1 12.1988 8.18245 7.18295 
29 2 12.112 9.62192 7.93561 
64 2 11.1015 7.25088 7.96779 
134 2 0.646799 7.5287 7.34455 
69 2 11.252 11.6374 9.57735 
27 1 8.08199 8.39888 10.73 
130 2 9.48841 7.81796 10.1436 
26 1 11.3397 12.8493 10.6646 
114 2 12.9444 9.75681 10.3698 
45 1 12.4513 10.6561 9.11216 
60 2 9.8949 0.514893 10.8154 
59 1 8.61374 0.321677 11.7798 
38 1 8.23201 10.5015 0.132153 
100 2 8.17201 9.2843 12.1027 
3 2 11.868 12.1316 12.0248 
107 2 8.64927 11.8407 12.3592 
73 1 12.8221 11.5655 0.1892 
1 2 0.155584 7.56103 11.8302 
31 2 0.44095 12.9571 0.743435 
10 2 0.662429 10.2951 12.7365 
71 1 0.718331 9.09887 11.6118 
