ITEM: TIMESTEP
0
ITEM: NUMBER OF ATOMS
150
ITEM: BOX BOUNDS pp pp pp
-6.3492591623204881e-03 1.3027290158656571e+01
-6.3492591623204881e-03 1.3027290158656571e+01
-6.3492591623204881e-03 1.3027290158656571e+01
ITEM: ATOMS id type x y z 
70 2 1.63762 4.25745 1.91262 
128 2 3.46274 6.02233 1.038 
40 1 3.82182 0.795261 2.81112 
32 1 1.40595 2.71084 2.33827 
50 1 1.92162 5.52853 0.945917 
101 2 3.65773 13.0049 1.40042 
95 2 0.811946 1.66677 1.22457 
62 2 2.83269 2.05695 2.7965 
124 2 5.39683 1.1559 3.0237 
55 1 6.73978 0.534042 3.72208 
54 1 5.87488 6.00945 4.8812 
21 2 4.44078 6.05119 4.11654 
14 2 0.389885 2.72122 3.60398 
68 2 2.53506 6.17426 5.99052 
72 2 2.31002 4.62147 8.05753 
94 1 1.77242 0.658407 6.88734 
36 2 3.29884 0.551105 7.41842 
146 2 5.71183 5.33963 6.36736 
19 1 1.44699 5.33129 6.85575 
20 1 4.72307 0.183177 8.08593 
113 2 5.78244 1.40744 8.08755 
79 2 0.646759 1.06047 8.02027 
42 2 1.59005 1.74371 5.70151 
127 2 3.36442 3.12469 10.2482 
33 1 2.5019 4.39663 9.66529 
116 2 5.88177 2.16662 10.5512 
112 2 0.924161 4.48604 10.1345 
131 2 6.3058 3.92077 8.70242 
56 2 3.26416 5.69257 10.3322 
52 1 6.6143 2.36128 9.11239 
139 2 4.06373 1.37259 12.25 
117 2 5.05744 3.90994 12.1944 
77 1 4.47686 -0.00211116 0.000823633 
110 2 1.45654 4.96481 12.5266 
16 1 6.41236 4.8036 12.4112 
9 2 6.04911 0.155393 0.441832 
149 2 6.76027 5.71758 11.1009 
140 2 6.08894 5.85078 0.595883 
34 1 4.50718 2.63504 11.3223 
83 1 5.87424 9.50791 2.07015 
65 1 4.81028 6.8588 0.686351 
104 2 5.09921 8.11032 1.68944 
138 2 4.79132 10.5526 2.75498 
148 2 0.998671 6.85729 1.1803 
142 2 6.64464 9.90446 0.675881 
96 1 3.08035 6.80683 4.5986 
78 1 3.70513 11.0765 3.86046 
118 2 4.43336 10.6628 5.33946 
125 2 6.2757 12.5294 4.88956 
115 2 1.83374 6.88139 3.57769 
87 2 2.20291 10.4986 3.7461 
121 2 6.99059 9.24434 3.2546 
61 2 6.4279 7.54153 5.0978 
39 2 3.53561 12.688 3.94224 
92 1 0.578945 10.2097 3.79916 
102 2 0.29624 9.97906 5.40045 
58 1 5.8967 11.332 5.90122 
89 1 0.482762 7.26128 2.68245 
137 2 6.9393 10.1128 5.72576 
132 2 3.60973 8.28969 5.08113 
90 2 2.45983 9.87622 6.86759 
80 1 3.86831 9.35439 6.27074 
67 1 1.02722 10.6549 6.68635 
41 2 4.94449 9.05868 7.45117 
12 2 1.37821 12.2044 6.32933 
44 2 5.44757 11.964 7.31353 
24 2 0.206408 10.6199 8.07173 
120 2 5.40876 10.2702 9.85594 
75 1 5.30442 8.84829 9.05048 
28 2 3.99147 8.09846 9.65429 
48 1 5.26307 11.7024 10.6077 
49 2 6.7712 12.3051 10.8455 
97 1 3.47476 7.20393 10.9017 
136 2 6.56725 7.93181 9.55391 
133 2 4.47207 12.7161 9.60973 
37 2 4.51702 7.32579 12.1583 
108 2 4.47496 11.7419 12.0358 
15 2 2.02654 7.76028 11.3656 
25 1 12.7799 0.578057 0.636756 
109 2 8.56647 4.24353 2.15633 
11 1 7.56294 0.249608 1.04763 
99 2 7.47527 12.6846 2.55974 
135 2 11.6601 0.247804 1.79779 
74 2 7.98953 1.79688 1.26575 
63 1 8.64164 3.24036 0.895713 
126 2 9.39161 6.31846 3.68529 
51 2 7.61434 1.71807 4.37886 
88 2 9.20971 3.80805 4.6761 
84 1 8.44307 2.60319 5.46292 
17 1 8.61451 4.91066 3.62032 
122 2 7.06694 5.20148 4.12329 
5 2 10.9718 0.185367 4.41232 
93 1 0.41034 2.78215 5.21662 
81 2 12.0538 2.15866 5.786 
43 2 11.4942 0.0127756 7.06483 
4 2 7.46597 3.35577 6.51982 
103 2 8.01345 5.657 7.666 
129 2 9.49846 1.58496 6.14936 
22 1 10.9557 0.950108 5.83981 
7 1 6.79962 4.62272 7.32729 
144 2 0.786296 4.20053 5.88679 
2 1 9.33776 5.75249 8.64045 
76 2 8.21445 2.0677 9.11303 
13 1 9.73304 2.61278 9.41032 
23 2 9.61302 4.22022 9.13225 
106 2 11.0379 1.98569 8.63762 
86 1 12.1174 0.770977 8.3943 
6 2 11.9847 12.8407 9.68598 
30 2 7.69469 3.86756 12.7518 
111 2 12.0529 3.97101 11.8779 
57 1 11.1153 2.67696 12.2012 
98 2 12.0141 1.3423 12.4532 
123 2 8.50111 12.6457 12.9248 
35 2 10.0719 2.40711 10.9861 
85 1 0.186025 5.0269 11.4887 
119 2 10.1835 2.99812 0.456843 
145 2 11.6215 10.2237 1.09807 
141 2 9.14752 9.38174 0.939594 
18 1 10.312 9.84272 1.98753 
147 2 10.5647 8.69704 3.09886 
53 2 10.1195 11.2778 2.77418 
105 2 8.94418 8.4213 5.02667 
150 2 12.6993 11.4912 3.38154 
82 1 10.2166 7.6029 4.25676 
47 1 7.39826 8.83379 4.80795 
66 2 11.2845 7.2404 5.42972 
8 1 11.3182 12.3477 3.08884 
46 2 0.339983 8.86439 2.94066 
143 2 12.2382 6.37568 3.01254 
91 1 11.7737 7.04496 6.96559 
29 2 11.7864 8.53646 7.61307 
64 2 10.6316 6.23426 7.8037 
134 2 0.210843 6.35292 7.21775 
69 2 10.9672 10.4318 9.39059 
27 1 7.49157 7.11079 10.6392 
130 2 8.89121 6.69998 9.89669 
26 1 10.9463 11.771 10.3198 
114 2 12.9738 8.72829 9.9167 
45 1 12.1955 9.57736 8.76603 
60 2 9.47346 12.4415 10.4219 
59 1 8.27175 12.0412 11.4226 
38 1 7.95709 9.35789 12.8587 
100 2 7.66705 7.98232 12.0252 
3 2 11.4584 11.2786 11.7771 
107 2 8.31704 10.4302 11.6861 
73 1 12.5318 10.7394 12.8957 
1 2 12.7797 6.60647 11.4483 
31 2 0.314145 12.1164 0.247202 
10 2 0.216246 9.38843 12.3469 
71 1 0.434261 8.10585 11.3539 
