ITEM: TIMESTEP
0
ITEM: NUMBER OF ATOMS
150
ITEM: BOX BOUNDS pp pp pp
2.0372352234662933e-03 1.3076515369983404e+01
2.0372352234662933e-03 1.3076515369983404e+01
2.0372352234662933e-03 1.3076515369983404e+01
ITEM: ATOMS id type x y z 
70 2 0.323301 3.83483 0.0508715 
128 2 2.12587 5.76564 12.7083 
40 1 2.55468 0.504722 1.11994 
32 1 0.112272 2.47119 0.901731 
50 1 0.586254 5.29945 12.4756 
101 2 2.46753 12.9299 12.6866 
95 2 12.3324 1.27736 0.169781 
62 2 1.54557 1.75313 1.24297 
124 2 4.12419 0.872847 1.38587 
55 1 5.49165 0.128166 1.89662 
54 1 4.70282 5.73935 3.17405 
21 2 3.209 5.7472 2.54797 
14 2 12.4122 2.91847 2.24699 
68 2 1.04535 5.28519 4.06188 
72 2 0.855029 4.54057 6.49257 
94 1 0.700792 0.747155 5.47376 
36 2 2.26085 0.795395 5.92158 
146 2 4.71504 5.09044 4.67534 
19 1 13.0239 5.03483 5.23566 
20 1 3.65425 0.0404997 6.26969 
113 2 4.93779 1.04112 6.35398 
79 2 12.5264 0.935744 6.53842 
42 2 0.44856 1.86065 4.32936 
127 2 1.89241 3.11857 8.60761 
33 1 1.03796 4.41212 8.09571 
116 2 4.43539 2.00357 8.65677 
112 2 12.5492 4.52662 8.59307 
131 2 5.40421 3.64142 6.9081 
56 2 1.84451 5.71848 8.67179 
52 1 5.53752 2.09634 7.45342 
139 2 2.65438 1.27399 10.4216 
117 2 3.78416 3.74226 10.3816 
77 1 3.23587 0.00630713 11.2634 
110 2 0.277628 5.07046 10.8968 
16 1 5.11042 4.64366 10.6799 
9 2 4.7798 0.417927 11.6529 
149 2 5.43923 5.67678 9.46359 
140 2 4.76322 5.47665 12.0441 
34 1 3.12497 2.52933 9.49845 
83 1 4.6061 9.20554 0.368632 
65 1 3.50873 6.49109 12.2682 
104 2 3.93647 7.7277 0.156587 
138 2 3.43527 10.2079 0.932445 
148 2 12.6322 6.50973 12.8889 
142 2 5.30988 9.56808 12.0204 
96 1 1.80695 6.34419 3.10948 
78 1 2.40053 10.7069 2.07998 
118 2 3.14297 10.1529 3.5255 
125 2 4.99405 11.9266 2.77899 
115 2 0.691939 6.80979 2.04101 
87 2 0.907544 10.1037 1.98954 
121 2 5.72313 9.10931 1.56926 
61 2 5.22426 7.28809 3.31669 
39 2 2.25793 12.3227 2.13823 
92 1 12.3593 9.97367 2.25469 
102 2 12.2593 10.171 3.87773 
58 1 4.56086 10.9842 4.01373 
89 1 12.2649 6.96143 1.35232 
137 2 5.65449 9.803 4.09982 
132 2 2.25155 7.67076 3.9926 
90 2 1.3021 9.81733 5.29567 
80 1 2.61096 9.05201 4.7386 
67 1 13.0539 10.7695 5.16319 
41 2 3.70533 8.9536 5.93366 
12 2 0.466838 12.298 4.88933 
44 2 4.04153 11.8998 5.23558 
24 2 12.2124 10.69 6.53806 
120 2 4.4475 10.1233 8.28926 
75 1 4.16703 8.72092 7.49229 
28 2 2.91104 8.04399 8.27562 
48 1 4.18529 11.6177 8.8737 
49 2 5.63246 12.3673 9.0429 
97 1 2.2263 7.1175 9.41771 
136 2 5.42881 7.72499 7.75032 
133 2 3.38149 12.4136 7.71278 
37 2 3.1972 6.9908 10.7224 
108 2 3.38919 11.7822 10.2855 
15 2 0.85047 7.79642 9.94918 
25 1 11.3051 0.329376 12.406 
109 2 7.33305 4.54265 0.246654 
11 1 6.29283 0.494432 12.2633 
99 2 6.26778 12.6803 0.558138 
135 2 10.0655 12.932 0.319681 
74 2 6.62234 1.99903 12.7724 
63 1 7.35696 3.35257 12.233 
126 2 8.21386 5.85187 2.45043 
51 2 6.33726 1.11554 2.85198 
88 2 7.87747 3.18722 2.45666 
84 1 7.30656 2.17983 3.61204 
17 1 7.35971 4.61995 1.85993 
122 2 5.81038 4.89346 2.33816 
5 2 9.60801 12.5443 2.96817 
93 1 12.1623 2.61285 3.80034 
81 2 10.9815 1.50902 3.94097 
43 2 10.3416 12.7814 5.61333 
4 2 6.53789 3.17551 4.64998 
103 2 7.07232 5.44984 5.88676 
129 2 8.42401 1.31145 4.41208 
22 1 9.78878 0.44063 4.25674 
7 1 5.88581 4.38365 5.54576 
144 2 11.9706 3.88226 4.77989 
2 1 8.29645 5.5693 6.98272 
76 2 7.12882 1.87209 7.74543 
13 1 8.663 2.45656 7.88076 
23 2 8.56382 4.0241 7.433 
106 2 9.88546 1.7347 7.06499 
86 1 10.9836 0.527539 6.90159 
6 2 10.8657 12.7045 8.2531 
30 2 6.46443 3.76807 10.9262 
111 2 10.9219 3.99854 10.5794 
57 1 10.0025 2.65928 10.7886 
98 2 10.8034 1.29192 11.1851 
123 2 7.25577 13.0698 11.0516 
35 2 9.13572 2.39899 9.43558 
85 1 11.9719 5.09916 10.0077 
119 2 8.89876 2.96807 11.9383 
145 2 10.3683 9.75858 12.5279 
141 2 7.84482 9.05466 12.3018 
18 1 9.04831 9.29717 0.300666 
147 2 9.25299 8.0034 1.24833 
53 2 8.8389 10.6529 1.21732 
105 2 7.70625 8.24925 3.23245 
150 2 11.4078 11.1565 1.66503 
82 1 8.95947 7.27787 2.68607 
47 1 6.1512 8.6195 3.08516 
66 2 10.0182 7.25482 3.90829 
8 1 9.91125 11.8449 1.53692 
46 2 11.9213 8.52764 1.67809 
143 2 11.2313 5.89383 1.92325 
91 1 10.6543 7.07785 5.38555 
29 2 10.75 8.58454 5.98977 
64 2 9.62582 6.22627 6.33357 
134 2 12.1418 6.39297 5.45158 
69 2 10.0657 10.2287 8.0179 
27 1 6.29585 6.95421 8.907 
130 2 7.68162 6.4154 8.24029 
26 1 9.8003 11.6172 8.82252 
114 2 12.148 8.57308 8.15661 
45 1 11.2672 9.53065 7.17998 
60 2 8.31036 12.2361 8.67186 
59 1 7.08984 12.126 9.72705 
38 1 6.68616 9.26068 11.1716 
100 2 6.51961 7.98353 10.166 
3 2 10.0219 11.2559 10.3918 
107 2 7.02299 10.5832 10.2801 
73 1 11.1544 10.6008 11.3858 
1 2 11.5687 6.68722 9.91019 
31 2 11.9143 11.9479 11.9279 
10 2 11.9622 9.46976 10.5462 
71 1 12.3542 8.12311 9.71324 
