ITEM: TIMESTEP
0
ITEM: NUMBER OF ATOMS
150
ITEM: BOX BOUNDS pp pp pp
-8.1125767512754232e-04 1.3064416205274496e+01
-8.1125767512754232e-04 1.3064416205274496e+01
-8.1125767512754232e-04 1.3064416205274496e+01
ITEM: ATOMS id type x y z 
70 2 1.1691 4.00555 0.795694 
128 2 3.02344 5.86204 0.322727 
40 1 3.35434 0.785934 1.93589 
32 1 0.904656 2.60395 1.54417 
50 1 1.4878 5.40857 0.0706942 
101 2 3.22563 0.113462 0.441446 
95 2 0.232921 1.41044 0.642381 
62 2 2.3506 2.03159 2.04259 
124 2 4.92317 1.16705 2.1567 
55 1 6.29695 0.525518 2.76056 
54 1 5.63915 5.94446 4.00282 
21 2 4.22084 6.00573 3.23206 
14 2 12.9662 2.86293 2.78659 
68 2 1.99619 5.69352 4.69522 
72 2 1.83612 4.73195 7.08949 
94 1 1.4319 0.706301 5.98354 
36 2 2.99958 0.771428 6.40992 
146 2 5.45259 5.31049 5.49877 
19 1 0.918499 5.24917 5.82745 
20 1 4.44986 0.311649 6.97586 
113 2 5.58431 1.47521 7.0706 
79 2 0.303144 1.07473 7.13274 
42 2 1.08234 1.7105 4.76434 
127 2 2.95555 3.25247 9.24657 
33 1 2.0544 4.50924 8.68813 
116 2 5.42227 2.18109 9.55307 
112 2 0.495563 4.56048 9.23418 
131 2 6.12839 3.9657 7.83616 
56 2 2.83173 5.82224 9.28879 
52 1 6.33201 2.37679 8.21058 
139 2 3.62238 1.68103 11.3849 
117 2 4.75335 4.1416 11.0591 
77 1 4.04699 0.276361 12.1145 
110 2 1.19816 5.11982 11.5664 
16 1 6.00673 5.16236 11.3039 
9 2 5.62123 0.455806 12.555 
149 2 6.33046 6.13097 10.0323 
140 2 5.61402 6.09571 12.5874 
34 1 4.11566 2.82028 10.3247 
83 1 5.32194 9.48126 1.10595 
65 1 4.20242 6.8528 12.8953 
104 2 4.49875 8.10369 0.81806 
138 2 4.24224 10.5526 1.72126 
148 2 0.483577 6.62802 0.49473 
142 2 6.10492 9.83663 12.7831 
96 1 2.84483 6.69152 3.75088 
78 1 3.24658 11.017 2.91693 
118 2 4.03583 10.5046 4.34449 
125 2 5.88042 12.2435 3.5706 
115 2 1.85024 7.20784 2.59362 
87 2 1.77255 10.3678 2.89738 
121 2 6.42015 9.24985 2.30615 
61 2 6.19653 7.47479 4.16752 
39 2 3.08105 12.6264 2.98821 
92 1 0.158306 10.0815 3.07001 
102 2 0.0134173 9.98287 4.70011 
58 1 5.51007 11.2636 4.79901 
89 1 0.288848 7.16371 2.03197 
137 2 6.58156 10.0611 4.77924 
132 2 3.31143 7.98662 4.66596 
90 2 2.18711 9.90263 6.14123 
80 1 3.55916 9.34101 5.50081 
67 1 0.753255 10.6749 5.97635 
41 2 4.7057 9.30283 6.64274 
12 2 1.13143 12.2114 5.57473 
44 2 5.07206 12.159 6.06619 
24 2 12.9489 10.6242 7.33575 
120 2 5.18609 10.4423 9.05222 
75 1 5.14032 9.04519 8.20139 
28 2 3.93934 8.16177 8.86259 
48 1 4.97665 11.943 9.6518 
49 2 6.47364 12.575 9.89488 
97 1 3.02411 7.3166 9.9042 
136 2 6.5359 8.24612 8.44549 
133 2 4.23056 12.7871 8.47725 
37 2 3.71204 7.30915 11.3865 
108 2 4.11397 12.124 11.0264 
15 2 1.53192 7.94559 10.0625 
25 1 12.1935 0.410331 13.0437 
109 2 8.27302 4.66121 1.1427 
11 1 7.12332 0.789747 0.0287736 
99 2 7.25157 0.118471 1.50535 
135 2 11.0515 13.0259 1.08431 
74 2 7.31939 2.37962 0.244114 
63 1 8.20069 3.69643 12.9133 
126 2 9.22326 6.05483 3.20726 
51 2 6.95298 1.56913 3.7946 
88 2 8.78356 3.39665 3.50055 
84 1 8.04708 2.44334 4.61308 
17 1 8.34097 4.78396 2.75421 
122 2 6.81075 5.09222 3.27518 
5 2 10.3681 12.8325 3.70481 
93 1 12.8823 2.70625 4.38614 
81 2 11.558 1.85734 4.79396 
43 2 11.167 12.9387 6.31334 
4 2 7.3402 3.45517 5.66592 
103 2 7.76116 5.77869 6.76376 
129 2 9.04584 1.38216 5.33519 
22 1 10.4762 0.661386 5.05636 
7 1 6.59573 4.68412 6.45846 
144 2 13.0581 4.02356 5.30006 
2 1 9.12354 5.81261 7.69036 
76 2 7.93573 2.10273 8.34376 
13 1 9.47389 2.67007 8.52107 
23 2 9.35716 4.26698 8.16984 
106 2 10.7091 1.97891 7.6851 
86 1 11.8179 0.772006 7.54455 
6 2 11.7087 12.9609 8.90642 
30 2 7.38509 4.36936 11.6699 
111 2 11.8585 3.95237 11.1989 
57 1 10.7929 2.72221 11.4457 
98 2 11.4903 1.30542 11.8688 
123 2 8.12001 0.282245 11.9236 
35 2 9.93189 2.53287 10.0764 
85 1 12.9053 5.07165 10.6433 
119 2 9.70325 3.18782 12.5632 
145 2 11.1313 10.0446 0.128905 
141 2 8.62122 9.27293 0.0674282 
18 1 9.89296 9.52431 1.04309 
147 2 10.1988 8.17182 1.87603 
53 2 9.71138 10.8275 2.03436 
105 2 8.59077 8.51599 3.79633 
150 2 12.2418 11.2997 2.61394 
82 1 9.85422 7.54377 3.3362 
47 1 7.01372 8.83781 3.78882 
66 2 10.9635 7.54754 4.50127 
8 1 10.7796 12.0278 2.35498 
46 2 12.8963 8.71304 2.27267 
143 2 12.5582 6.04702 2.84578 
91 1 11.497 7.18624 5.9879 
29 2 11.4383 8.6216 6.75189 
64 2 10.3916 6.28207 6.79977 
134 2 12.9837 6.51301 6.14802 
69 2 10.5053 10.6667 8.34278 
27 1 7.3186 7.36187 9.57962 
130 2 8.70555 6.7552 8.96708 
26 1 10.6299 11.8678 9.43915 
114 2 12.2335 8.85403 9.1937 
45 1 11.7233 9.6963 7.90179 
60 2 9.19896 12.5984 9.61716 
59 1 7.93538 12.4158 10.6005 
38 1 7.50956 9.53623 11.979 
100 2 7.44902 8.30733 10.9111 
3 2 11.1492 11.1562 10.808 
107 2 7.92397 10.8793 11.1613 
73 1 12.1059 10.6375 12.0419 
1 2 12.4249 6.64339 10.6269 
31 2 12.8037 12.0304 12.552 
10 2 12.9841 9.34935 11.5776 
71 1 13.0262 8.16904 10.4437 
