ITEM: TIMESTEP
0
ITEM: NUMBER OF ATOMS
150
ITEM: BOX BOUNDS pp pp pp
2.8944831227959364e-03 1.3068015080507662e+01
2.8944831227959364e-03 1.3068015080507662e+01
2.8944831227959364e-03 1.3068015080507662e+01
ITEM: ATOMS id type x y z 
70 2 0.802629 3.46336 0.710698 
128 2 2.79269 5.25684 0.430227 
40 1 3.16146 0.353351 1.8756 
32 1 0.648069 2.13523 1.61821 
50 1 1.23853 4.89903 0.108534 
101 2 3.12342 12.8377 0.339463 
95 2 12.9949 0.852237 0.8945 
62 2 2.12464 1.57093 2.03236 
124 2 4.70246 0.796608 2.17419 
55 1 6.07307 0.143351 2.77014 
54 1 5.47587 5.49394 3.99658 
21 2 4.02206 5.56774 3.29631 
14 2 12.8668 2.54373 2.92539 
68 2 1.74024 5.17977 4.59825 
72 2 1.76155 4.45154 7.05638 
94 1 1.3285 0.419229 6.18759 
36 2 2.89711 0.60548 6.55696 
146 2 5.44653 4.84446 5.49504 
19 1 0.746683 4.86042 5.83816 
20 1 4.33599 13.0157 6.92114 
113 2 5.56082 1.02159 6.99457 
79 2 0.146855 0.763284 7.27768 
42 2 0.922117 1.3235 4.90719 
127 2 2.92631 2.86116 9.08998 
33 1 2.01501 4.13779 8.62714 
116 2 5.32403 1.65803 9.47499 
112 2 0.474641 4.08901 9.20992 
131 2 6.02707 3.51259 7.8199 
56 2 2.80666 5.40479 9.29948 
52 1 6.25617 1.92076 8.16461 
139 2 3.41944 1.32356 11.2339 
117 2 4.78068 3.67295 10.9096 
77 1 3.95064 13.0594 12.0217 
110 2 1.08858 4.73398 11.5652 
16 1 5.94722 4.74029 11.3154 
9 2 5.47681 0.381878 12.4969 
149 2 6.21074 5.84373 10.1439 
140 2 5.38044 5.47695 12.6617 
34 1 4.04568 2.40327 10.1862 
83 1 5.10606 8.88627 1.15885 
65 1 3.98455 6.2484 13.0169 
104 2 4.32348 7.46839 0.973458 
138 2 4.01689 9.98622 1.69317 
148 2 0.252083 6.12596 0.562347 
142 2 5.84739 9.18568 12.8093 
96 1 2.61643 6.23376 3.74598 
78 1 3.03493 10.5194 2.86616 
118 2 3.81711 9.99539 4.30656 
125 2 5.64934 11.7772 3.43234 
115 2 1.6201 6.76957 2.59901 
87 2 1.54864 9.90337 2.86535 
121 2 6.22864 8.78707 2.35444 
61 2 5.98181 7.04243 4.20436 
39 2 2.90605 12.1352 2.86946 
92 1 13.016 9.63123 3.15451 
102 2 12.9597 9.74035 4.79198 
58 1 5.25525 10.846 4.69506 
89 1 0.0338208 6.68713 2.09673 
137 2 6.35116 9.66769 4.79733 
132 2 3.02973 7.49679 4.7273 
90 2 2.03637 9.47607 6.19145 
80 1 3.36335 8.85791 5.5206 
67 1 0.661149 10.3465 6.10109 
41 2 4.49442 8.8076 6.67933 
12 2 1.11734 11.891 5.84583 
44 2 4.76775 11.8155 5.88907 
24 2 12.903 10.2313 7.48702 
120 2 5.1303 10.0319 9.01619 
75 1 5.00432 8.60619 8.22538 
28 2 3.86833 7.77733 9.05478 
48 1 4.94461 11.5434 9.5962 
49 2 6.4484 12.1405 9.87111 
97 1 2.91638 6.86809 10.0099 
136 2 6.40999 7.79923 8.37637 
133 2 4.18676 12.335 8.39285 
37 2 3.48156 6.8179 11.5462 
108 2 4.11874 11.8055 10.9854 
15 2 1.38002 7.40936 10.0522 
25 1 11.9796 12.9224 0.0983895 
109 2 8.33241 4.44404 1.12422 
11 1 6.95959 0.669571 0.0550162 
99 2 7.05442 12.9725 1.49211 
135 2 10.7456 12.4779 1.0951 
74 2 7.23766 2.23393 0.343478 
63 1 8.22574 3.44816 12.917 
126 2 8.95178 5.60418 3.4137 
51 2 6.71052 1.12341 3.88565 
88 2 8.54112 2.92797 3.38978 
84 1 7.89072 2.00543 4.58364 
17 1 8.15165 4.37676 2.73388 
122 2 6.5798 4.65167 3.14691 
5 2 10.1627 12.3307 3.71997 
93 1 12.729 2.31361 4.5079 
81 2 11.3876 1.42851 4.73806 
43 2 11.0535 12.5635 6.31056 
4 2 7.37376 3.07563 5.69257 
103 2 7.71339 5.36456 6.89216 
129 2 8.8997 0.940334 5.28179 
22 1 10.331 0.218878 5.02395 
7 1 6.58328 4.26997 6.49304 
144 2 12.8523 3.59948 5.47833 
2 1 9.06181 5.41334 7.84108 
76 2 7.8552 1.68503 8.35339 
13 1 9.3767 2.25587 8.59235 
23 2 9.26987 3.8731 8.35278 
106 2 10.5859 1.58905 7.71173 
86 1 11.6632 0.361546 7.58659 
6 2 11.5619 12.5187 8.9273 
30 2 7.41002 4.08709 11.6514 
111 2 11.8464 3.39186 11.1587 
57 1 10.7429 2.20944 11.4697 
98 2 11.4044 0.790534 11.9465 
123 2 7.94284 0.144797 11.9416 
35 2 9.85653 1.98868 10.1217 
85 1 12.8354 4.56018 10.6027 
119 2 9.67248 2.80455 12.5536 
145 2 10.9524 9.45918 0.161412 
141 2 8.41263 8.74338 0.127766 
18 1 9.70534 8.96254 1.08517 
147 2 9.96677 7.62856 1.96377 
53 2 9.50901 10.2606 2.0804 
105 2 8.37891 8.08066 3.90346 
150 2 12.013 10.8011 2.62762 
82 1 9.62573 7.08057 3.45955 
47 1 6.80553 8.41129 3.85483 
66 2 10.7514 7.11245 4.60587 
8 1 10.5364 11.4925 2.38313 
46 2 12.6379 8.22488 2.43996 
143 2 12.2798 5.57839 2.89905 
91 1 11.3691 6.8103 6.07025 
29 2 11.3752 8.27908 6.76164 
64 2 10.3402 5.90163 6.97206 
134 2 12.8707 6.16386 6.14147 
69 2 10.4282 10.2329 8.40872 
27 1 7.19705 7.03232 9.58775 
130 2 8.60509 6.38943 9.07437 
26 1 10.565 11.3951 9.54519 
114 2 12.1099 8.35413 9.2187 
45 1 11.6632 9.28445 7.97112 
60 2 9.13619 12.0575 9.87822 
59 1 7.80369 12.077 10.7814 
38 1 7.30622 9.14002 12.0697 
100 2 7.34238 8.09191 10.8252 
3 2 11.1525 10.6459 10.8628 
107 2 7.65637 10.6436 11.5594 
73 1 12.0054 10.068 12.143 
1 2 12.2545 6.09747 10.569 
31 2 12.6378 11.47 12.7376 
10 2 12.8493 8.76366 11.6351 
71 1 12.877 7.62168 10.451 
