ITEM: TIMESTEP
0
ITEM: NUMBER OF ATOMS
150
ITEM: BOX BOUNDS pp pp pp
-1.6205934525046993e-03 1.3024063893693217e+01
-1.6205934525046993e-03 1.3024063893693217e+01
-1.6205934525046993e-03 1.3024063893693217e+01
ITEM: ATOMS id type x y z 
70 2 0.486652 2.84525 0.794179 
128 2 2.50783 4.65075 0.414171 
40 1 2.82588 12.6442 1.70657 
32 1 0.302032 1.44543 1.59387 
50 1 0.953177 4.25542 0.142206 
101 2 2.79987 12.1078 0.152208 
95 2 12.6022 0.183944 0.812778 
62 2 1.77657 0.815951 1.93449 
124 2 4.35994 0.0900557 1.99114 
55 1 5.74892 12.5159 2.60129 
54 1 5.10968 4.74766 3.74916 
21 2 3.61315 4.72873 3.13746 
14 2 12.5781 1.87087 2.96347 
68 2 1.66308 4.1622 4.73628 
72 2 1.4753 4.08921 7.22777 
94 1 0.982468 12.6885 6.20162 
36 2 2.53133 0.035422 6.51144 
146 2 5.23747 4.14876 5.27024 
19 1 0.542092 4.13692 5.90438 
20 1 3.98405 12.3664 6.71818 
113 2 5.25005 0.367907 6.7273 
79 2 12.7976 12.962 7.27399 
42 2 0.509244 0.478903 4.887 
127 2 2.75025 2.18508 8.89016 
33 1 1.8023 3.49126 8.69216 
116 2 5.05069 0.882465 9.23143 
112 2 0.276395 3.23918 9.24128 
131 2 5.74304 2.83176 7.62472 
56 2 2.61166 4.64595 9.51508 
52 1 5.95276 1.22669 7.92252 
139 2 3.14015 0.619575 11.0143 
117 2 4.6619 2.87809 10.7242 
77 1 3.64408 12.3021 11.7968 
110 2 0.819309 3.9516 11.5776 
16 1 5.73611 4.0188 11.1782 
9 2 5.18014 12.6592 12.2779 
149 2 5.92642 5.21602 10.0856 
140 2 5.11397 4.65127 12.5522 
34 1 3.8382 1.67198 9.98866 
83 1 4.95163 8.12269 1.12168 
65 1 3.79951 5.51731 12.9729 
104 2 4.24391 6.65536 1.02493 
138 2 3.77124 9.15229 1.61768 
148 2 12.9586 5.51552 0.414689 
142 2 5.59646 8.39966 12.6801 
96 1 2.16548 5.24022 3.64313 
78 1 2.66658 9.70176 2.67543 
118 2 3.40403 9.20971 4.15808 
125 2 5.32973 11.0816 3.27797 
115 2 0.863747 5.35017 2.68846 
87 2 1.17908 9.0899 2.58066 
121 2 6.1158 8.14015 2.28101 
61 2 5.56497 6.32454 3.94317 
39 2 2.57539 11.3219 2.6579 
92 1 12.6485 8.78005 3.0489 
102 2 12.751 8.97255 4.67649 
58 1 4.81617 10.1527 4.50462 
89 1 12.4399 5.75214 1.97036 
137 2 5.89143 8.96102 4.71228 
132 2 2.49909 6.69313 4.39968 
90 2 1.76963 8.62093 6.129 
80 1 2.99011 7.95591 5.30112 
67 1 0.425391 9.53555 6.04454 
41 2 4.1242 7.75564 6.45436 
12 2 0.915368 11.0804 5.88839 
44 2 4.28678 11.1693 5.63887 
24 2 12.5431 9.38546 7.37512 
120 2 4.78228 9.25869 8.70886 
75 1 4.65815 7.77213 8.01315 
28 2 3.56528 7.01761 8.96895 
48 1 4.60853 10.7542 9.36195 
49 2 6.10042 11.2951 9.75934 
97 1 2.68139 6.18374 10.049 
136 2 6.09074 7.01451 8.18756 
133 2 3.92611 11.6087 8.15885 
37 2 3.31563 6.22685 11.556 
108 2 3.74887 11.0548 10.7365 
15 2 1.11795 6.6446 10.0626 
25 1 11.6815 12.1278 13.0165 
109 2 8.0563 3.76918 0.970066 
11 1 6.65084 0.0139806 12.8968 
99 2 6.75899 12.3229 1.33406 
135 2 10.4501 11.6799 0.977403 
74 2 6.87467 1.59458 0.133595 
63 1 7.9698 2.75146 12.7488 
126 2 8.30599 4.93188 3.34057 
51 2 6.34054 0.489674 3.72398 
88 2 8.17224 2.23462 3.20093 
84 1 7.56775 1.30874 4.41501 
17 1 7.71782 3.66078 2.54142 
122 2 6.10325 3.85388 2.81621 
5 2 9.91363 11.6359 3.59914 
93 1 12.3909 1.60553 4.53893 
81 2 10.9858 0.816118 4.73571 
43 2 10.6837 11.76 6.19005 
4 2 7.13923 2.39029 5.54714 
103 2 7.49593 4.66511 6.74975 
129 2 8.52456 0.195648 5.11253 
22 1 9.9946 12.559 4.93058 
7 1 6.34626 3.60078 6.31566 
144 2 12.6266 2.84359 5.57171 
2 1 8.79461 4.68631 7.76974 
76 2 7.5289 0.966435 8.20052 
13 1 9.03279 1.52485 8.51797 
23 2 8.95147 3.13973 8.27023 
106 2 10.1931 0.751077 7.66621 
86 1 11.2471 12.5321 7.5401 
6 2 11.1548 11.5683 8.83798 
30 2 7.24824 3.45501 11.462 
111 2 11.5691 2.55537 11.1412 
57 1 10.4179 1.41522 11.3953 
98 2 11.0652 12.9927 11.7773 
123 2 7.64945 12.5609 11.7051 
35 2 9.50679 1.29683 10.0526 
85 1 12.5528 3.72505 10.6026 
119 2 9.38756 1.9994 12.5147 
145 2 10.6756 8.64537 0.22005 
141 2 8.14387 7.95688 13.0107 
18 1 9.32221 8.26496 1.05094 
147 2 9.45099 7.04703 2.09553 
53 2 9.04311 9.63129 1.92669 
105 2 8.00805 7.33324 4.16922 
150 2 11.5768 9.90606 2.56271 
82 1 9.14578 6.30452 3.50482 
47 1 6.46984 7.69664 3.84106 
66 2 10.3601 6.05721 4.52621 
8 1 10.1827 10.741 2.27982 
46 2 12.2727 7.30453 2.48541 
143 2 11.2271 4.75968 2.2402 
91 1 11.0688 6.01226 5.96791 
29 2 10.9916 7.54699 6.48918 
64 2 10.153 5.14555 7.01078 
134 2 12.6055 5.46067 5.91087 
69 2 10.0809 9.23735 8.42151 
27 1 6.91104 6.36472 9.44383 
130 2 8.30921 5.67679 8.97297 
26 1 10.1383 10.4738 9.47871 
114 2 11.8396 7.35593 8.93908 
45 1 11.3175 8.39681 7.80996 
60 2 8.72253 11.2178 9.64708 
59 1 7.46656 11.3422 10.6438 
38 1 7.04623 8.44155 11.9208 
100 2 7.10461 7.51928 10.5831 
3 2 10.6349 9.85033 10.8918 
107 2 7.38855 9.98784 11.5599 
73 1 11.6207 9.26633 12.0718 
1 2 11.9496 5.24424 10.4705 
31 2 12.3366 10.663 12.6029 
10 2 12.3726 7.97962 11.4063 
71 1 12.5304 6.77604 10.2992 
