ITEM: TIMESTEP
0
ITEM: NUMBER OF ATOMS
150
ITEM: BOX BOUNDS pp pp pp
2.6497722862428574e-03 1.3053516394553263e+01
2.6497722862428574e-03 1.3053516394553263e+01
2.6497722862428574e-03 1.3053516394553263e+01
ITEM: ATOMS id type x y z 
70 2 1.11454 4.64444 1.70194 
128 2 3.02772 6.38667 0.940245 
40 1 3.17918 1.37205 2.74285 
32 1 0.73471 3.22374 2.37417 
50 1 1.47532 5.93805 0.804999 
101 2 3.04254 0.729981 1.23653 
95 2 0.11901 2.06798 1.3861 
62 2 2.11854 2.55748 2.93485 
124 2 4.72554 1.85111 2.93872 
55 1 6.10779 1.26441 3.57099 
54 1 5.54025 6.57698 4.88879 
21 2 4.12459 6.58647 4.10754 
14 2 12.7249 3.44877 3.57479 
68 2 1.82052 6.33517 5.46702 
72 2 1.74847 5.23042 7.80752 
94 1 1.24824 1.30421 6.78393 
36 2 2.84027 1.30375 7.14463 
146 2 5.3859 5.91772 6.37361 
19 1 0.790734 5.84298 6.62061 
20 1 4.31839 0.856582 7.66309 
113 2 5.43162 2.04169 7.77938 
79 2 0.155073 1.69105 7.9619 
42 2 0.864611 2.3238 5.58534 
127 2 2.90698 3.75441 9.97089 
33 1 1.98554 4.98742 9.40031 
116 2 5.31609 2.58659 10.3144 
112 2 0.43547 5.01309 9.95326 
131 2 5.94749 4.46897 8.66158 
56 2 2.72533 6.31058 10.0244 
52 1 6.18303 2.8718 8.96538 
139 2 3.53922 2.29026 12.1888 
117 2 4.80194 4.65959 11.7016 
77 1 3.89261 0.858298 12.9048 
110 2 1.13184 5.49663 12.3306 
16 1 6.02508 5.71647 11.9293 
9 2 5.45976 0.897362 0.352692 
149 2 6.23164 6.67005 10.6256 
140 2 5.59578 6.59709 0.187468 
34 1 4.06291 3.34729 11.0622 
83 1 5.2968 10.023 1.82838 
65 1 4.20566 7.39629 0.473538 
104 2 4.48897 8.65301 1.46229 
138 2 4.2197 11.1058 2.42574 
148 2 0.537099 7.24017 1.13548 
142 2 6.13447 10.43 0.486922 
96 1 2.72357 7.28755 4.52942 
78 1 3.2453 11.5547 3.64251 
118 2 4.0674 11.0229 5.03538 
125 2 5.79373 12.8601 4.24078 
115 2 1.81844 7.76135 3.28535 
87 2 1.76999 10.911 3.64326 
121 2 6.35116 9.74012 3.05987 
61 2 6.02006 8.13288 5.06086 
39 2 3.03388 0.105061 3.77081 
92 1 0.161535 10.6171 3.82283 
102 2 0.0326116 10.44 5.44866 
58 1 5.50428 11.852 5.47503 
89 1 0.278017 7.7627 2.66738 
137 2 6.63914 10.7041 5.46346 
132 2 3.14738 8.60105 5.43578 
90 2 2.20925 10.6319 6.86659 
80 1 3.53152 9.94352 6.23865 
67 1 0.693119 11.2314 6.71714 
41 2 4.69142 9.89011 7.37057 
12 2 0.876342 12.8118 6.35814 
44 2 4.98606 12.7337 6.72611 
24 2 12.8712 11.0586 8.0626 
120 2 4.88675 10.926 9.88534 
75 1 5.04235 9.59718 8.9473 
28 2 3.87456 8.58416 9.45387 
48 1 4.78822 12.4625 10.4174 
49 2 6.33547 12.9399 10.7075 
97 1 2.98175 7.82105 10.569 
136 2 6.48726 8.93145 9.29885 
133 2 4.15785 0.233675 9.16033 
37 2 3.73517 7.88459 12.0191 
108 2 3.89921 12.7462 11.7567 
15 2 1.50316 8.48257 10.7421 
25 1 12.1166 0.992719 0.754752 
109 2 7.87114 4.95036 1.88204 
11 1 7.00091 1.26531 0.747672 
99 2 7.16618 1.0586 2.35414 
135 2 11.0282 0.535197 1.90515 
74 2 7.26108 2.82955 0.440464 
63 1 8.10893 4.22102 0.455173 
126 2 9.1772 6.47471 3.663 
51 2 6.62945 2.25684 4.72937 
88 2 8.56411 3.91877 4.27941 
84 1 7.85442 3.03551 5.46095 
17 1 8.13346 5.26196 3.44911 
122 2 6.71911 5.76243 4.1263 
5 2 10.3452 0.333304 4.51825 
93 1 12.6662 3.32854 5.18093 
81 2 11.3211 2.52876 5.61544 
43 2 10.9724 0.528862 7.14408 
4 2 7.31608 4.09595 6.56285 
103 2 7.61017 6.39039 7.73881 
129 2 8.83519 1.89975 6.0821 
22 1 10.3113 1.26591 5.84375 
7 1 6.49243 5.27314 7.36251 
144 2 12.8789 4.66066 6.06416 
2 1 9.00565 6.36882 8.61257 
76 2 7.78403 2.61433 9.10447 
13 1 9.28237 3.21958 9.39753 
23 2 9.15322 4.82921 9.12839 
106 2 10.5642 2.60048 8.58068 
86 1 11.6558 1.38981 8.37848 
6 2 11.5891 0.472035 9.71382 
30 2 7.48138 5.05861 12.2552 
111 2 11.7524 4.44121 11.8482 
57 1 10.6712 3.27264 12.2233 
98 2 11.3497 1.85156 12.6454 
123 2 7.93724 0.384053 12.8153 
35 2 9.66753 3.02456 10.9642 
85 1 12.8556 5.53428 11.3648 
119 2 9.68603 3.84834 0.335314 
145 2 11.1442 10.6255 0.93151 
141 2 8.63792 9.8411 0.863166 
18 1 9.90967 10.0968 1.84672 
147 2 10.2167 8.75793 2.69928 
53 2 9.69675 11.3901 2.84327 
105 2 8.47345 8.83965 4.52017 
150 2 12.2275 11.8513 3.42678 
82 1 9.79504 7.92966 4.0363 
47 1 6.9553 9.37801 4.5554 
66 2 10.7763 7.84343 5.31632 
8 1 10.7703 12.5843 3.17179 
46 2 12.8897 9.30743 2.93862 
143 2 12.4404 6.685 3.43117 
91 1 11.3219 7.67023 6.83016 
29 2 11.1904 9.15421 7.49137 
64 2 10.2767 6.74448 7.68873 
134 2 12.8481 7.09206 7.01824 
69 2 10.4625 11.2085 9.14912 
27 1 7.22931 7.94437 10.3679 
130 2 8.66855 7.39905 9.8352 
26 1 10.5286 12.4124 10.245 
114 2 12.1473 9.29653 9.89631 
45 1 11.6143 10.1881 8.64558 
60 2 9.07462 0.0570935 10.42 
59 1 7.81533 12.7196 11.3541 
38 1 7.5099 9.97763 12.7552 
100 2 7.31582 8.65055 11.8395 
3 2 11.0813 11.7261 11.6104 
107 2 7.92773 11.1266 11.6835 
73 1 12.0923 11.1983 12.7952 
1 2 12.4406 7.12495 11.3659 
31 2 12.7672 12.6134 0.255157 
10 2 12.9096 9.88646 12.2613 
71 1 12.9822 8.67252 11.1524 
