ITEM: TIMESTEP
0
ITEM: NUMBER OF ATOMS
150
ITEM: BOX BOUNDS pp pp pp
2.7207665748927965e-03 1.3048871235788610e+01
2.7207665748927965e-03 1.3048871235788610e+01
2.7207665748927965e-03 1.3048871235788610e+01
ITEM: ATOMS id type x y z 
70 2 0.939465 4.41605 1.53211 
128 2 2.7957 6.14896 0.48329 
40 1 2.9529 1.09601 2.41778 
32 1 0.493458 2.98904 2.16239 
50 1 1.26014 5.61687 0.496222 
101 2 2.8604 0.504956 0.888511 
95 2 12.8826 1.89284 1.12651 
62 2 1.86918 2.25262 2.65908 
124 2 4.48132 1.60582 2.66749 
55 1 5.86923 1.05621 3.31543 
54 1 5.40792 6.27073 4.54795 
21 2 4.00686 6.25019 3.73915 
14 2 12.5379 3.21587 3.41728 
68 2 1.695 6.06125 5.06818 
72 2 1.82842 5.21856 7.5129 
94 1 1.04632 0.884149 6.52088 
36 2 2.64329 0.902342 6.85516 
146 2 5.29334 5.59207 6.02484 
19 1 0.76325 5.61309 6.3179 
20 1 4.13013 0.547035 7.41248 
113 2 5.22891 1.75066 7.45474 
79 2 13.0354 1.31045 7.71464 
42 2 0.637366 1.88807 5.3194 
127 2 2.85872 3.55279 9.59021 
33 1 2.00548 4.86342 9.09517 
116 2 5.21462 2.31296 10.0035 
112 2 0.439441 4.87753 9.59623 
131 2 5.82876 4.16448 8.31128 
56 2 2.73699 6.09871 9.88439 
52 1 6.02978 2.56483 8.6197 
139 2 3.31591 1.97743 11.7616 
117 2 4.65947 4.31793 11.4753 
77 1 3.72732 0.612156 12.5605 
110 2 0.85793 5.03458 12.0811 
16 1 5.87153 5.38951 11.6941 
9 2 5.28616 0.794435 0.0180992 
149 2 6.06225 6.32791 10.3743 
140 2 5.41703 6.29215 12.9816 
34 1 3.93978 3.0599 10.7196 
83 1 5.13516 9.70394 1.5461 
65 1 4.04651 7.1402 0.184736 
104 2 4.29783 8.33181 1.26141 
138 2 4.09353 10.8281 2.13359 
148 2 0.284151 6.9039 0.78025 
142 2 5.96373 10.027 0.179479 
96 1 2.60158 6.98017 4.09602 
78 1 3.10771 11.2563 3.35148 
118 2 3.91028 10.756 4.7625 
125 2 5.56987 12.6838 4.07643 
115 2 1.67867 7.39888 2.84589 
87 2 1.65274 10.5684 3.37831 
121 2 6.20491 9.45121 2.76747 
61 2 5.82228 7.84273 4.75032 
39 2 2.82427 12.8477 3.41303 
92 1 0.0346362 10.3025 3.49549 
102 2 12.8856 10.0615 5.10802 
58 1 5.33909 11.5789 5.24281 
89 1 0.109327 7.4742 2.3029 
137 2 6.47599 10.4325 5.14747 
132 2 3.02315 8.30148 4.99306 
90 2 2.02555 10.2197 6.53281 
80 1 3.37184 9.59227 5.8929 
67 1 0.500606 10.8017 6.4083 
41 2 4.52727 9.5128 7.02941 
12 2 0.660498 12.3944 6.1029 
44 2 4.81999 12.3695 6.55613 
24 2 12.6889 10.5806 7.75552 
120 2 4.79136 10.7093 9.47351 
75 1 4.85991 9.31678 8.62664 
28 2 3.59429 8.45068 9.18365 
48 1 4.66228 12.1914 10.1339 
49 2 6.20449 12.6437 10.4622 
97 1 2.85838 7.64427 10.378 
136 2 6.24794 8.57212 9.05732 
133 2 3.98656 0.0364811 8.95105 
37 2 3.72182 7.79618 11.7542 
108 2 3.79563 12.4106 11.5027 
15 2 1.33387 8.12169 10.6787 
25 1 11.9215 0.733954 0.480231 
109 2 7.73426 4.54826 1.57443 
11 1 6.85508 0.94222 0.466306 
99 2 6.89792 0.772716 2.08636 
135 2 10.8521 0.272947 1.64361 
74 2 7.40663 2.41327 0.0924522 
63 1 8.08344 3.89394 0.135001 
126 2 9.05848 6.20749 3.22295 
51 2 6.44493 2.12477 4.37578 
88 2 8.48833 3.66863 3.96029 
84 1 7.74003 2.78122 5.10455 
17 1 8.02053 4.97928 3.1031 
122 2 6.62595 5.50853 3.79229 
5 2 10.3669 0.120299 4.27109 
93 1 12.5246 3.02303 5.02236 
81 2 11.1276 2.34217 5.50521 
43 2 10.7578 0.267025 6.92477 
4 2 7.2616 3.81178 6.25577 
103 2 7.51101 6.09328 7.41541 
129 2 8.64618 1.56598 5.68142 
22 1 10.1694 1.01684 5.60077 
7 1 6.39999 4.97464 7.02795 
144 2 12.9329 4.2999 5.92553 
2 1 8.85893 6.01367 8.36038 
76 2 7.61599 2.22921 8.74026 
13 1 9.06114 2.87161 9.16196 
23 2 8.89864 4.48004 8.91416 
106 2 10.417 2.27799 8.45618 
86 1 11.488 1.06637 8.17369 
6 2 11.4494 0.0935448 9.47079 
30 2 7.33316 4.73376 12.0007 
111 2 11.5699 4.02351 11.2527 
57 1 10.4976 2.94842 11.8566 
98 2 11.1441 1.52783 12.3252 
123 2 7.7014 12.9164 12.6404 
35 2 9.33512 2.66429 10.7506 
85 1 12.6903 5.17527 10.988 
119 2 9.69594 3.70024 0.0176249 
145 2 10.9561 10.4098 0.740521 
141 2 8.47906 9.58321 0.647098 
18 1 9.72382 9.88207 1.65651 
147 2 10.0982 8.56701 2.51838 
53 2 9.53459 11.1695 2.66676 
105 2 8.28365 8.50115 4.24569 
150 2 12.1243 11.5643 3.11888 
82 1 9.6392 7.62509 3.76378 
47 1 6.77913 9.07918 4.27056 
66 2 10.5104 7.44135 5.11547 
8 1 10.673 12.3223 2.92523 
46 2 12.8026 9.04546 2.52573 
143 2 12.2318 6.5085 3.16708 
91 1 11.1457 7.26568 6.59525 
29 2 10.9539 8.71277 7.32298 
64 2 10.21 6.27392 7.5093 
134 2 12.719 6.79589 6.6681 
69 2 10.3156 10.8199 8.93046 
27 1 7.05531 7.60657 10.1042 
130 2 8.49103 7.08646 9.53338 
26 1 10.3894 12.0344 10.013 
114 2 12.0105 8.93814 9.71439 
45 1 11.4434 9.76515 8.43534 
60 2 8.94129 12.7308 10.2352 
59 1 7.6553 12.3179 11.1223 
38 1 7.37687 9.59955 12.4964 
100 2 7.22299 8.2515 11.6007 
3 2 10.9514 11.3658 11.38 
107 2 7.75092 10.7113 11.3682 
73 1 11.9464 10.9042 12.602 
1 2 12.2342 6.75108 11.1031 
31 2 12.6181 12.3508 0.0136042 
10 2 12.7057 9.5346 12.1175 
71 1 12.7867 8.31086 11.0126 
