ITEM: TIMESTEP
0
ITEM: NUMBER OF ATOMS
150
ITEM: BOX BOUNDS pp pp pp
1.0654652632315418e-03 1.3048609095741464e+01
1.0654652632315418e-03 1.3048609095741464e+01
1.0654652632315418e-03 1.3048609095741464e+01
ITEM: ATOMS id type x y z 
70 2 1.4651 4.30214 1.29654 
128 2 3.57312 5.83732 0.714062 
40 1 3.72507 0.991782 2.24108 
32 1 1.24342 2.78322 1.79337 
50 1 1.99204 5.58191 0.466627 
101 2 3.67515 0.355891 0.728973 
95 2 0.730294 1.71846 0.673079 
62 2 2.66537 2.1961 2.34843 
124 2 5.28401 1.38978 2.50466 
55 1 6.68737 0.727448 3.01881 
54 1 5.98488 6.07321 4.3712 
21 2 4.56171 6.1931 3.60634 
14 2 0.138242 2.76072 2.97692 
68 2 2.65628 6.18146 5.45729 
72 2 2.07454 4.59331 7.38716 
94 1 1.77787 0.903741 6.353 
36 2 3.37754 1.04386 6.62756 
146 2 5.7763 5.34324 5.81776 
19 1 1.40934 5.39477 6.12948 
20 1 4.8201 0.603967 7.22467 
113 2 5.92649 1.76991 7.43429 
79 2 0.695657 1.30795 7.53758 
42 2 1.33384 1.79647 5.07695 
127 2 3.29424 3.55222 9.64381 
33 1 2.38306 4.73245 8.97334 
116 2 5.72657 2.40736 9.94295 
112 2 0.868279 4.93866 9.5839 
131 2 6.51032 4.17327 8.24034 
56 2 3.24116 6.07996 9.38587 
52 1 6.67841 2.58237 8.6319 
139 2 3.89882 2.09492 11.771 
117 2 5.26755 4.46046 11.3498 
77 1 4.4423 0.682876 12.385 
110 2 1.70198 5.22299 11.9474 
16 1 6.57757 5.40505 11.6519 
9 2 5.9977 1.00662 12.7941 
149 2 6.89264 6.45179 10.4413 
140 2 6.18105 6.23115 13.0158 
34 1 4.48257 3.17417 10.698 
83 1 5.70515 9.4932 1.55814 
65 1 4.70882 6.88524 0.226134 
104 2 4.83598 8.13733 1.26029 
138 2 4.66016 10.6073 2.1767 
148 2 1.15173 6.94894 0.779858 
142 2 6.4528 9.80633 0.132153 
96 1 3.22115 6.93828 4.1404 
78 1 3.62748 11.1876 3.29356 
118 2 4.39075 10.8275 4.76516 
125 2 6.29212 12.4189 3.83064 
115 2 1.94113 7.06821 3.16645 
87 2 2.15738 10.5298 3.29424 
121 2 6.82518 9.24256 2.74417 
61 2 6.56411 7.57876 4.67817 
39 2 3.44568 12.7939 3.25907 
92 1 0.533427 10.2705 3.39782 
102 2 0.289318 10.2077 5.01977 
58 1 5.90945 11.5117 5.11063 
89 1 0.563794 7.33101 2.2758 
137 2 6.8904 10.233 5.1483 
132 2 3.74586 8.38407 4.71601 
90 2 2.47441 9.98275 6.40122 
80 1 3.91166 9.56803 5.8002 
67 1 1.07155 10.8195 6.31319 
41 2 4.97573 9.48616 7.01841 
12 2 1.50109 12.3661 6.03057 
44 2 5.54719 12.4686 6.35386 
24 2 0.250491 10.6956 7.69513 
120 2 5.58973 10.747 9.35394 
75 1 5.50529 9.31687 8.56473 
28 2 4.36949 8.45211 9.34993 
48 1 5.36953 12.2742 9.87469 
49 2 6.86697 12.9404 10.0055 
97 1 3.495 7.44185 10.2681 
136 2 6.92052 8.53247 8.75952 
133 2 4.53311 13.015 8.69474 
37 2 4.22408 7.28666 11.7364 
108 2 4.57866 12.5439 11.2747 
15 2 2.00154 8.02048 10.5611 
25 1 12.6593 0.660403 0.151445 
109 2 8.80008 5.00855 1.50084 
11 1 7.51139 1.19823 0.312459 
99 2 7.58176 0.35659 1.70706 
135 2 11.5863 0.282707 1.3412 
74 2 7.80213 2.73004 0.734422 
63 1 8.73276 3.98634 0.254439 
126 2 9.55627 6.32666 3.66183 
51 2 7.38585 1.75444 4.04626 
88 2 9.15996 3.65162 3.8416 
84 1 8.42529 2.65243 4.91041 
17 1 8.73073 5.05469 3.1174 
122 2 7.1586 5.28524 3.56979 
5 2 11.0063 0.240816 3.9664 
93 1 0.222657 2.90076 4.57945 
81 2 11.8857 2.392 5.25625 
43 2 11.5944 0.203118 6.58153 
4 2 7.72148 3.60678 6.0202 
103 2 8.02888 5.97777 7.06991 
129 2 9.43554 1.60227 5.62762 
22 1 10.937 1.06409 5.36093 
7 1 6.93348 4.80746 6.8097 
144 2 0.745075 4.334 5.09802 
2 1 9.42348 6.00441 7.93247 
76 2 8.27539 2.28324 8.7558 
13 1 9.79846 2.8958 8.88661 
23 2 9.64327 4.46713 8.45088 
106 2 11.0637 2.1559 8.13983 
86 1 12.1853 0.96934 7.92064 
6 2 12.0663 13.017 9.19171 
30 2 7.94239 4.5748 11.9917 
111 2 12.3169 4.10168 11.5317 
57 1 11.1883 2.93292 11.7583 
98 2 11.8538 1.46745 12.0327 
123 2 8.43716 0.763676 12.0994 
35 2 10.2311 2.85293 10.4506 
85 1 0.30207 5.26883 11.0753 
119 2 10.2067 3.39661 12.9686 
145 2 11.5758 10.328 0.558364 
141 2 9.03503 9.73984 0.406883 
18 1 10.2711 9.92464 1.44699 
147 2 10.4578 8.59724 2.35263 
53 2 10.1466 11.2662 2.39831 
105 2 8.98016 8.69411 4.39461 
150 2 12.7073 11.5487 2.89216 
82 1 10.2504 7.79306 3.7558 
47 1 7.38553 8.93552 4.2814 
66 2 11.4685 7.74938 4.8228 
8 1 11.3123 12.393 2.64956 
46 2 0.249735 8.9105 2.5692 
143 2 12.4121 6.33835 2.60983 
91 1 11.8605 7.26471 6.31998 
29 2 11.8495 8.60748 7.23181 
64 2 10.6574 6.36062 6.95116 
134 2 0.243751 6.49012 6.48143 
69 2 10.9053 10.6727 8.77446 
27 1 7.79888 7.70204 9.86656 
130 2 9.12551 7.04924 9.16231 
26 1 11.0147 11.9359 9.80145 
114 2 12.7416 8.96112 9.63849 
45 1 12.1487 9.72768 8.33864 
60 2 9.58206 12.6601 9.98855 
59 1 8.23719 12.7534 10.8723 
38 1 7.86406 9.84671 12.3261 
100 2 7.99688 8.69955 11.1615 
3 2 11.571 11.2926 11.188 
107 2 7.99909 11.3032 11.6067 
73 1 12.559 10.8322 12.4188 
1 2 12.8371 6.82043 11.1846 
31 2 0.238127 12.2467 12.8039 
10 2 0.390768 9.52979 12.0184 
71 1 0.442656 8.31023 10.9349 
