ITEM: TIMESTEP
0
ITEM: NUMBER OF ATOMS
150
ITEM: BOX BOUNDS pp pp pp
-2.7736765182502197e-03 1.3082360245743734e+01
-2.7736765182502197e-03 1.3082360245743734e+01
-2.7736765182502197e-03 1.3082360245743734e+01
ITEM: ATOMS id type x y z 
70 2 0.29698 3.85664 12.9377 
128 2 2.16296 5.70975 12.5582 
40 1 2.62809 0.517388 0.906271 
32 1 0.159539 2.50583 0.734325 
50 1 0.608938 5.31421 12.297 
101 2 2.61675 12.935 12.4899 
95 2 12.311 1.31687 0.105456 
62 2 1.59829 1.75619 0.973095 
124 2 4.18206 0.92444 1.21798 
55 1 5.53446 0.155155 1.73761 
54 1 4.73469 5.792 3.02957 
21 2 3.23911 5.75688 2.40984 
14 2 12.5988 2.98348 2.13602 
68 2 1.14558 5.20361 3.95156 
72 2 0.938989 4.48178 6.37922 
94 1 0.784321 0.705236 5.35369 
36 2 2.32223 0.790392 5.86397 
146 2 4.78929 5.15894 4.5351 
19 1 0.0373063 4.94864 5.11232 
20 1 3.71782 0.0205953 6.17413 
113 2 5.00095 1.02209 6.24805 
79 2 12.588 0.898667 6.37505 
42 2 0.567172 1.79388 4.1794 
127 2 1.88793 3.17217 8.55665 
33 1 1.06318 4.46504 7.99307 
116 2 4.47189 2.10234 8.48433 
112 2 12.5653 4.66929 8.40748 
131 2 5.49354 3.64972 6.70037 
56 2 1.88548 5.77902 8.52955 
52 1 5.60224 2.12635 7.30183 
139 2 2.73522 1.19617 10.2002 
117 2 3.80469 3.70877 10.3062 
77 1 3.38797 13.0644 11.0665 
110 2 0.278726 5.11115 10.7195 
16 1 5.15202 4.58801 10.5784 
9 2 4.90574 0.483815 11.4538 
149 2 5.53431 5.59284 9.35139 
140 2 4.79982 5.43474 11.9326 
34 1 3.15291 2.53408 9.36794 
83 1 4.65104 9.14976 0.242574 
65 1 3.54829 6.44904 12.1539 
104 2 3.96166 7.67618 0.0526532 
138 2 3.48381 10.1558 0.805157 
148 2 12.7285 6.56939 12.7225 
142 2 5.32916 9.49601 11.8898 
96 1 1.81347 6.30136 2.97089 
78 1 2.44123 10.711 1.91831 
118 2 3.17539 10.1639 3.38304 
125 2 5.00257 11.995 2.65443 
115 2 0.62832 6.68109 1.94139 
87 2 0.93178 10.1454 1.8239 
121 2 5.795 9.09505 1.42375 
61 2 5.23222 7.34515 3.18471 
39 2 2.31873 12.332 1.9085 
92 1 12.392 10.007 2.0936 
102 2 12.3059 10.2002 3.71858 
58 1 4.58515 11.0162 3.86944 
89 1 12.274 6.96636 1.16988 
137 2 5.69543 9.85058 3.94913 
132 2 2.24396 7.66908 3.80156 
90 2 1.33828 9.77197 5.1434 
80 1 2.65397 9.02299 4.57675 
67 1 0.0469746 10.7618 4.99876 
41 2 3.74913 8.87971 5.77044 
12 2 0.586396 12.2746 4.7383 
44 2 4.06936 11.8964 5.11767 
24 2 12.2932 10.7183 6.3755 
120 2 4.62393 10.0992 8.05873 
75 1 4.24861 8.68166 7.32633 
28 2 2.99402 8.10197 8.19302 
48 1 4.33596 11.5621 8.70636 
49 2 5.73703 12.3972 8.84507 
97 1 2.29113 7.15505 9.30887 
136 2 5.46225 7.6323 7.60504 
133 2 3.46271 12.3609 7.59848 
37 2 3.26184 6.96518 10.6063 
108 2 3.61474 11.7181 10.1628 
15 2 0.925143 7.84082 9.85984 
25 1 11.2831 0.399905 12.3232 
109 2 7.33592 4.59472 0.0627671 
11 1 6.40197 0.467281 12.116 
99 2 6.27134 12.6615 0.395979 
135 2 10.0474 12.9948 0.215427 
74 2 6.80815 1.93561 12.6726 
63 1 7.41503 3.34613 12.128 
126 2 8.24344 5.91495 2.28523 
51 2 6.43626 1.13797 2.65323 
88 2 7.91307 3.26124 2.24391 
84 1 7.38742 2.23479 3.39876 
17 1 7.38792 4.69891 1.6714 
122 2 5.8473 4.97074 2.17729 
5 2 9.61791 12.5397 2.84846 
93 1 12.3049 2.55581 3.64958 
81 2 11.1226 1.44928 3.69967 
43 2 10.3607 12.8656 5.47577 
4 2 6.59255 3.20934 4.43803 
103 2 7.18131 5.45073 5.72892 
129 2 8.56166 1.44341 4.19905 
22 1 9.86746 0.479548 4.08131 
7 1 5.97414 4.41814 5.3559 
144 2 12.0736 3.78441 4.67324 
2 1 8.39013 5.59107 6.84068 
76 2 7.19754 1.90816 7.60061 
13 1 8.72663 2.49315 7.78278 
23 2 8.68214 4.05884 7.32165 
106 2 9.98159 1.76431 7.02164 
86 1 11.0418 0.539922 6.77844 
6 2 10.9312 12.6804 8.09646 
30 2 6.47646 3.67677 10.8325 
111 2 10.9305 4.08882 10.378 
57 1 10.0419 2.74659 10.6626 
98 2 10.8377 1.39548 11.1096 
123 2 7.35371 13.013 10.9124 
35 2 9.13081 2.42695 9.3539 
85 1 11.9795 5.20179 9.83561 
119 2 8.97445 3.07884 11.8303 
145 2 10.3753 9.79883 12.3721 
141 2 7.87158 9.08014 12.1177 
18 1 9.04327 9.3572 0.127251 
147 2 9.24733 8.12268 1.1484 
53 2 8.81205 10.7276 1.01491 
105 2 7.74619 8.25834 3.17045 
150 2 11.4031 11.1693 1.51382 
82 1 9.00795 7.32356 2.55852 
47 1 6.20038 8.64726 2.96161 
66 2 10.1164 7.25672 3.74187 
8 1 9.90859 11.8726 1.40013 
46 2 11.9952 8.54122 1.52997 
143 2 11.1084 5.95959 1.57376 
91 1 10.7695 7.05683 5.21368 
29 2 10.9389 8.55282 5.82605 
64 2 9.70835 6.26839 6.18472 
134 2 12.2288 6.30981 5.27011 
69 2 10.1445 10.2002 7.81789 
27 1 6.34266 6.89245 8.77296 
130 2 7.7455 6.40134 8.10662 
26 1 9.86399 11.5792 8.62878 
114 2 12.2785 8.6441 8.04881 
45 1 11.3872 9.52955 7.01887 
60 2 8.37111 12.1874 8.50811 
59 1 7.1606 12.0991 9.57298 
38 1 6.68907 9.2362 11.0052 
100 2 6.53058 7.95395 10.0088 
3 2 10.0593 11.2353 10.2031 
107 2 6.99355 10.5567 10.1014 
73 1 11.177 10.6564 11.2502 
1 2 11.6108 6.79899 9.79581 
31 2 11.8703 12.0364 11.798 
10 2 12.0588 9.55186 10.4483 
71 1 12.4489 8.2072 9.61501 
