ITEM: TIMESTEP
0
ITEM: NUMBER OF ATOMS
150
ITEM: BOX BOUNDS pp pp pp
0.0000000000000000e+00 1.3103997232901271e+01
0.0000000000000000e+00 1.3103997232901271e+01
0.0000000000000000e+00 1.3103997232901271e+01
ITEM: ATOMS id type x y z 
70 2 1.29343 4.00103 0.812505 
128 2 3.11457 5.89623 0.404934 
40 1 3.63892 0.681782 1.61534 
32 1 1.08721 2.53209 1.45467 
50 1 1.55674 5.48566 0.237381 
101 2 3.60087 0.0236323 0.110548 
95 2 0.268056 1.46133 0.53092 
62 2 2.54536 1.8605 1.76306 
124 2 5.20863 1.1315 1.73518 
55 1 6.63224 0.43819 2.18772 
54 1 5.62162 6.33368 4.09704 
21 2 4.248 6.25134 3.24838 
14 2 0.14289 2.73835 2.75826 
68 2 2.10376 5.68652 4.79468 
72 2 1.70666 4.81089 7.19796 
94 1 1.09589 0.761026 6.24163 
36 2 2.7378 0.932468 6.24797 
146 2 5.29491 5.60313 5.5163 
19 1 0.929156 5.14343 5.78727 
20 1 4.2851 0.455478 6.52781 
113 2 5.38222 1.58892 6.9737 
79 2 0.0364268 1.49772 7.28444 
42 2 0.530501 1.20223 4.77712 
127 2 2.69392 3.77684 9.5408 
33 1 1.92416 5.01817 8.78686 
116 2 5.01846 2.3485 9.40165 
112 2 0.416655 5.34391 9.36339 
131 2 5.95408 4.05147 7.69993 
56 2 2.80196 6.34951 9.15491 
52 1 6.08522 2.47552 8.17064 
139 2 3.58412 1.97219 11.4627 
117 2 4.8232 4.32985 11.0492 
77 1 4.26993 0.525966 11.815 
110 2 1.22993 5.37985 11.7499 
16 1 6.14796 5.20226 11.4177 
9 2 5.8902 0.76313 12.053 
149 2 6.64456 6.16752 10.2157 
140 2 5.72287 6.10566 12.7074 
34 1 3.94173 3.1343 10.3724 
83 1 5.25435 9.55239 0.998028 
65 1 4.29283 6.84314 12.946 
104 2 4.5516 8.10392 0.813144 
138 2 4.05394 10.5126 1.53597 
148 2 0.596584 6.66455 0.83641 
142 2 5.9025 9.91989 12.6528 
96 1 2.88874 6.80529 3.94585 
78 1 3.19424 11.0334 2.80428 
118 2 4.23079 10.5045 4.0911 
125 2 6.12811 12.2332 3.02332 
115 2 1.88201 7.48029 2.88468 
87 2 1.63783 10.6093 2.91993 
121 2 6.36652 9.43845 2.21537 
61 2 6.00756 7.90459 4.27402 
39 2 3.32943 12.6516 2.76279 
92 1 0.0382442 10.2414 3.21298 
102 2 13.0933 10.2318 4.85532 
58 1 5.60177 11.5111 4.36277 
89 1 0.336949 7.26545 2.34018 
137 2 6.72555 10.3853 4.67298 
132 2 3.3415 8.0539 4.91642 
90 2 2.42009 10.3655 5.79156 
80 1 3.74982 9.52552 5.42239 
67 1 0.872026 10.6797 6.15489 
41 2 4.68673 9.50732 6.73874 
12 2 0.784427 12.2712 6.43176 
44 2 4.99233 12.6148 5.37776 
24 2 0.47665 9.79207 7.44183 
120 2 5.4161 10.6492 9.03376 
75 1 4.96577 9.25512 8.33271 
28 2 3.64064 8.80304 9.1686 
48 1 5.02742 12.2154 9.19408 
49 2 6.50106 12.936 9.25965 
97 1 2.93438 7.67395 10.1031 
136 2 6.13192 8.16084 8.59463 
133 2 4.19562 12.6082 7.8595 
37 2 3.82173 7.34553 11.442 
108 2 4.21338 12.6167 10.5402 
15 2 1.43484 8.09938 10.5739 
25 1 12.0465 0.681973 0.000149911 
109 2 7.89706 4.44442 1.32586 
11 1 7.46216 0.749814 12.5429 
99 2 7.40577 12.9968 0.844591 
135 2 11.0668 0.181853 1.23286 
74 2 8.01771 2.15224 0.0176775 
63 1 8.32096 3.73947 13.0481 
126 2 9.36664 6.1863 2.72723 
51 2 7.28895 1.49506 3.24978 
88 2 8.71034 3.67596 3.6695 
84 1 7.83722 2.51374 4.41982 
17 1 8.28836 4.98667 2.79962 
122 2 6.92264 5.6019 3.46941 
5 2 10.2448 13.0887 3.76101 
93 1 12.8302 2.56962 4.30054 
81 2 11.2658 2.23818 4.59141 
43 2 10.9803 0.372773 6.34491 
4 2 6.82215 3.40765 5.34569 
103 2 7.67231 5.68141 6.52059 
129 2 8.79761 1.59249 5.35507 
22 1 10.2773 1.00708 5.02172 
7 1 6.39311 4.69624 6.28253 
144 2 0.270971 3.76507 5.24014 
2 1 8.94414 5.92511 7.53179 
76 2 7.68872 2.32092 8.53282 
13 1 9.19069 2.96281 8.80209 
23 2 9.05674 4.52393 8.3566 
106 2 10.4378 2.28766 7.96389 
86 1 11.5807 1.1513 7.66727 
6 2 11.5042 0.0987543 8.90523 
30 2 7.39536 4.26123 11.823 
111 2 11.9842 4.16721 11.1781 
57 1 10.7571 3.18178 11.5872 
98 2 11.2631 1.74036 12.1462 
123 2 8.3097 0.404301 11.1945 
35 2 9.71675 2.95171 10.3477 
85 1 12.9468 5.43206 10.8833 
119 2 9.89979 3.93617 12.7533 
145 2 10.8092 10.5632 0.0588018 
141 2 8.39693 9.70794 13.1 
18 1 9.64955 9.93615 1.01346 
147 2 10.1256 8.58525 1.78938 
53 2 9.50064 11.1491 2.11439 
105 2 8.47025 8.47898 3.65518 
150 2 12.0596 11.3617 2.71487 
82 1 9.83958 7.69149 3.14026 
47 1 6.98363 9.08496 3.70987 
66 2 10.8142 7.57062 4.43925 
8 1 10.6872 12.2416 2.44484 
46 2 12.8426 8.77826 2.55992 
143 2 12.7746 6.08837 3.19249 
91 1 11.4159 7.02472 5.86436 
29 2 11.5005 8.3429 6.83309 
64 2 10.2625 6.12192 6.60992 
134 2 12.8736 6.28379 6.00404 
69 2 11.2157 10.7222 8.0353 
27 1 7.28292 7.51672 9.55807 
130 2 8.55281 7.10002 8.61149 
26 1 10.6729 11.8168 9.09807 
114 2 12.2261 8.70667 9.4021 
45 1 12.0889 9.35349 7.92906 
60 2 9.08271 12.1441 8.99438 
59 1 7.87011 12.4665 10.0118 
38 1 7.33456 9.81652 11.8556 
100 2 7.4934 8.56211 10.8122 
3 2 10.9422 11.2103 10.5904 
107 2 7.5354 11.1605 10.9556 
73 1 11.8099 10.967 11.9555 
1 2 12.3124 6.89441 11.2303 
31 2 12.4653 12.4061 12.334 
10 2 12.76 9.665 11.751 
71 1 12.9438 8.34563 10.8217 
