ITEM: TIMESTEP
0
ITEM: NUMBER OF ATOMS
150
ITEM: BOX BOUNDS pp pp pp
-3.0266460688611776e-03 1.3042768995699280e+01
-3.0266460688611776e-03 1.3042768995699280e+01
-3.0266460688611776e-03 1.3042768995699280e+01
ITEM: ATOMS id type x y z 
70 2 1.191 4.91176 1.87194 
128 2 3.13446 6.68139 1.27582 
40 1 3.26368 1.66451 2.9594 
32 1 0.830816 3.51247 2.5898 
50 1 1.58075 6.26072 1.07996 
101 2 3.12836 1.03418 1.44875 
95 2 0.189997 2.34359 1.63997 
62 2 2.22376 2.86818 3.14881 
124 2 4.81901 2.11749 3.15146 
55 1 6.1958 1.50639 3.77312 
54 1 5.62474 6.90787 5.10214 
21 2 4.20388 6.92749 4.33375 
14 2 12.825 3.77459 3.78612 
68 2 1.91609 6.57046 5.70303 
72 2 1.72305 5.47915 8.04433 
94 1 1.36062 1.68947 7.00878 
36 2 2.95442 1.71172 7.36144 
146 2 5.45799 6.24165 6.58321 
19 1 0.828436 6.12824 6.82657 
20 1 4.41964 1.21388 7.87232 
113 2 5.57309 2.35687 8.02787 
79 2 0.255279 2.05847 8.18248 
42 2 0.959884 2.70439 5.81391 
127 2 2.92458 4.08492 10.236 
33 1 1.99799 5.30281 9.64045 
116 2 5.37367 2.95555 10.5348 
112 2 0.469247 5.34477 10.2507 
131 2 6.05016 4.81663 8.87538 
56 2 2.77578 6.63853 10.1867 
52 1 6.28788 3.22529 9.21214 
139 2 3.6176 2.63416 12.4252 
117 2 4.84966 5.02719 11.904 
77 1 3.97809 1.19259 0.0702583 
110 2 1.27103 5.9194 12.5672 
16 1 6.1029 6.04554 12.1454 
9 2 5.54818 1.24069 0.555373 
149 2 6.35661 7.02779 10.8731 
140 2 5.70121 6.91067 0.426854 
34 1 4.11471 3.69763 11.2936 
83 1 5.36152 10.3353 2.05805 
65 1 4.29475 7.67259 0.733148 
104 2 4.59361 8.94246 1.6988 
138 2 4.25795 11.387 2.66286 
148 2 0.63833 7.54839 1.45065 
142 2 6.17506 10.762 0.706989 
96 1 2.80318 7.58582 4.8158 
78 1 3.29338 11.8451 3.88378 
118 2 4.1146 11.3106 5.28217 
125 2 5.85573 0.0566856 4.43434 
115 2 1.88262 8.12622 3.61025 
87 2 1.81677 11.2024 3.87336 
121 2 6.4237 10.0874 3.29217 
61 2 6.12486 8.45437 5.27547 
39 2 3.09396 0.404586 3.9934 
92 1 0.210658 10.9263 4.09661 
102 2 0.0959919 10.835 5.72868 
58 1 5.55666 12.1435 5.70338 
89 1 0.349822 8.0663 2.97978 
137 2 6.70912 11.0146 5.7208 
132 2 3.22334 8.87446 5.75961 
90 2 2.27722 10.9678 7.12862 
80 1 3.58718 10.2512 6.51021 
67 1 0.780436 11.6166 6.98782 
41 2 4.75404 10.2118 7.63188 
12 2 1.00457 0.137755 6.60058 
44 2 5.03886 0.0287324 6.91753 
24 2 12.9728 11.4456 8.34652 
120 2 5.0419 11.2698 10.1331 
75 1 5.13534 9.93008 9.20102 
28 2 3.97529 8.92905 9.74927 
48 1 4.88927 12.819 10.6159 
49 2 6.42062 0.314342 10.8801 
97 1 3.04903 8.11773 10.8048 
136 2 6.58725 9.25177 9.46789 
133 2 4.22615 0.556495 9.35207 
37 2 3.77989 8.10879 12.27 
108 2 3.99168 0.0504022 11.9494 
15 2 1.5727 8.78404 10.9801 
25 1 12.1683 1.28625 1.01061 
109 2 8.07298 5.4495 2.10713 
11 1 7.05663 1.68147 0.993636 
99 2 7.25182 1.2794 2.55773 
135 2 11.0671 0.810069 2.14017 
74 2 7.19563 3.28801 0.921515 
63 1 8.1646 4.58708 0.74072 
126 2 9.2917 6.77746 4.08324 
51 2 6.72968 2.48515 4.93849 
88 2 8.6006 4.1981 4.45414 
84 1 7.92425 3.31918 5.66151 
17 1 8.23859 5.60983 3.70971 
122 2 6.79321 6.08148 4.33773 
5 2 10.3669 0.618775 4.74632 
93 1 12.7234 3.65655 5.38642 
81 2 11.4017 2.8051 5.78134 
43 2 11.098 0.837408 7.35611 
4 2 7.37496 4.39728 6.74678 
103 2 7.70796 6.70686 7.90248 
129 2 8.92742 2.22242 6.32186 
22 1 10.3899 1.55852 6.06817 
7 1 6.57955 5.59209 7.55188 
144 2 12.8519 5.00171 6.26415 
2 1 9.11432 6.72369 8.75873 
76 2 7.89122 2.98936 9.37763 
13 1 9.41189 3.58006 9.59327 
23 2 9.29808 5.18217 9.26645 
106 2 10.6572 2.91962 8.75543 
86 1 11.7591 1.71598 8.5933 
6 2 11.6845 0.816862 9.94104 
30 2 7.53203 5.33032 12.4772 
111 2 11.8752 4.79505 12.2528 
57 1 10.7765 3.59651 12.485 
98 2 11.4279 2.15442 12.8859 
123 2 8.03143 1.0195 12.9295 
35 2 9.86831 3.42119 11.1445 
85 1 12.9368 5.88999 11.677 
119 2 9.69692 4.07736 0.562572 
145 2 11.1983 10.9069 1.15366 
141 2 8.68206 10.1657 1.07279 
18 1 9.9593 10.3675 2.05877 
147 2 10.2375 8.99342 2.86556 
53 2 9.76562 11.6404 3.08577 
105 2 8.56551 9.19391 4.74216 
150 2 12.2834 12.1602 3.67598 
82 1 9.88403 8.2759 4.28457 
47 1 7.04188 9.7166 4.77961 
66 2 10.9535 8.3364 5.49161 
8 1 10.8138 12.8575 3.41201 
46 2 12.8914 9.59151 3.26336 
143 2 12.5639 6.93306 3.72869 
91 1 11.4479 8.07111 7.012 
29 2 11.3191 9.52915 7.72373 
64 2 10.3669 7.14287 7.82603 
134 2 12.9495 7.43493 7.20837 
69 2 10.5453 11.5492 9.38403 
27 1 7.3424 8.29766 10.5543 
130 2 8.76754 7.74861 9.98744 
26 1 10.6134 12.7601 10.4723 
114 2 12.2406 9.63153 10.131 
45 1 11.7189 10.5472 8.89571 
60 2 9.17053 0.439729 10.6053 
59 1 7.89624 0.154127 11.5552 
38 1 7.56621 10.382 12.9595 
100 2 7.42619 9.09402 11.979 
3 2 11.1534 12.0627 11.84 
107 2 7.99009 11.6326 12.0113 
73 1 12.1492 11.5124 13.0298 
1 2 12.4808 7.46877 11.6391 
31 2 12.8316 12.9073 0.521103 
10 2 12.9914 10.2207 12.4932 
71 1 0.00720572 8.99925 11.3949 
