ITEM: TIMESTEP
0
ITEM: NUMBER OF ATOMS
150
ITEM: BOX BOUNDS pp pp pp
2.6901546900086615e-03 1.3050396730330950e+01
2.6901546900086615e-03 1.3050396730330950e+01
2.6901546900086615e-03 1.3050396730330950e+01
ITEM: ATOMS id type x y z 
70 2 1.68588 4.28537 1.44123 
128 2 3.80326 5.81421 0.888806 
40 1 3.96252 0.985251 2.39752 
32 1 1.48559 2.75956 1.92415 
50 1 2.22294 5.57111 0.62909 
101 2 3.85335 0.316215 0.901244 
95 2 0.989761 1.68796 0.799839 
62 2 2.91051 2.19748 2.49944 
124 2 5.52952 1.37551 2.62713 
55 1 6.93027 0.738716 3.18593 
54 1 6.16325 6.06023 4.56723 
21 2 4.73752 6.14985 3.80381 
14 2 0.383624 2.72771 3.11093 
68 2 2.86655 6.25582 5.6887 
72 2 2.28341 4.58203 7.56598 
94 1 2.02584 0.895639 6.52254 
36 2 3.62938 1.08522 6.7568 
146 2 5.96412 5.33892 6.01955 
19 1 1.64077 5.38264 6.29566 
20 1 5.05496 0.610646 7.37383 
113 2 6.18203 1.75049 7.61758 
79 2 0.960029 1.31916 7.71888 
42 2 1.53483 1.74134 5.22991 
127 2 3.56858 3.46745 9.78152 
33 1 2.58784 4.62011 9.16078 
116 2 6.02009 2.37052 10.1412 
112 2 1.07453 4.6985 9.80181 
131 2 6.73345 4.15327 8.43081 
56 2 3.34125 6.00822 9.62165 
52 1 6.93889 2.56459 8.81076 
139 2 4.1931 2.04024 11.9512 
117 2 5.46583 4.4592 11.4726 
77 1 4.62826 0.578308 12.5467 
110 2 1.94443 5.21447 12.1113 
16 1 6.75811 5.42905 11.7505 
9 2 6.20606 0.741271 12.9635 
149 2 7.06044 6.46851 10.5364 
140 2 6.36501 6.27511 0.0519771 
34 1 4.745 3.12026 10.8606 
83 1 5.89463 9.48238 1.71606 
65 1 4.8878 6.89311 0.357302 
104 2 5.0249 8.13839 1.39281 
138 2 4.86707 10.6086 2.32989 
148 2 1.40442 6.95328 0.931097 
142 2 6.65087 9.82345 0.308721 
96 1 3.40632 6.92631 4.31214 
78 1 3.85299 11.1963 3.45536 
118 2 4.61847 10.8235 4.92322 
125 2 6.53096 12.4189 3.98309 
115 2 2.1189 7.00959 3.34582 
87 2 2.37487 10.5598 3.44999 
121 2 7.00499 9.21729 2.90234 
61 2 6.73674 7.57188 4.85157 
39 2 3.69721 12.806 3.44179 
92 1 0.754647 10.275 3.55777 
102 2 0.523959 10.2195 5.18224 
58 1 6.13791 11.5108 5.2624 
89 1 0.779257 7.32493 2.41573 
137 2 7.11079 10.2257 5.29881 
132 2 3.9494 8.39751 4.7955 
90 2 2.70281 9.93305 6.551 
80 1 4.13457 9.53792 5.92353 
67 1 1.31751 10.7994 6.48424 
41 2 5.19399 9.4034 7.13965 
12 2 1.7791 12.345 6.24161 
44 2 5.77459 12.464 6.5097 
24 2 0.486989 10.671 7.86088 
120 2 5.65963 10.6875 9.47734 
75 1 5.69407 9.24995 8.69657 
28 2 4.61379 8.29985 9.45661 
48 1 5.49288 12.2156 10.0101 
49 2 7.00985 12.8358 10.162 
97 1 3.65378 7.4073 10.4104 
136 2 7.16272 8.58548 8.93065 
133 2 4.7139 13.0193 8.83165 
37 2 4.33973 7.28726 11.8965 
108 2 4.67421 12.4711 11.3969 
15 2 2.19387 8.09679 10.6229 
25 1 12.8955 0.650155 0.279358 
109 2 8.8704 4.93074 1.62889 
11 1 7.70173 1.11821 0.435086 
99 2 7.873 0.408693 1.89521 
135 2 11.8425 0.291344 1.49062 
74 2 7.83958 2.70304 0.728838 
63 1 8.83071 3.94739 0.350854 
126 2 9.73962 6.33017 3.69999 
51 2 7.58073 1.76836 4.24625 
88 2 9.34706 3.66386 3.99195 
84 1 8.63396 2.67716 5.08628 
17 1 8.88714 5.04335 3.2419 
122 2 7.33793 5.28109 3.76122 
5 2 11.2586 0.314236 4.10741 
93 1 0.489855 2.89717 4.70976 
81 2 12.1249 2.4847 5.39829 
43 2 11.8656 0.277217 6.70599 
4 2 7.94136 3.63464 6.20163 
103 2 8.1976 6.0083 7.27232 
129 2 9.67968 1.65041 5.78567 
22 1 11.1901 1.14521 5.49944 
7 1 7.1317 4.81363 7.00522 
144 2 1.09406 4.31036 5.20302 
2 1 9.61099 6.03129 8.10303 
76 2 8.53739 2.27627 8.9242 
13 1 10.049 2.92458 9.04103 
23 2 9.85161 4.48961 8.59838 
106 2 11.3236 2.20253 8.29239 
86 1 12.4357 1.00514 8.07548 
6 2 12.2469 13.0244 9.31719 
30 2 8.13114 4.61014 12.0765 
111 2 12.5136 4.1204 11.8339 
57 1 11.3714 2.93936 11.9653 
98 2 12.0612 1.47652 12.1945 
123 2 8.62996 0.716639 12.2088 
35 2 10.4869 2.907 10.6045 
85 1 0.537136 5.20386 11.256 
119 2 10.3117 3.33044 0.0896134 
145 2 11.7499 10.3745 0.68695 
141 2 9.21626 9.7493 0.610875 
18 1 10.4711 9.98061 1.61608 
147 2 10.6889 8.66156 2.52315 
53 2 10.3526 11.3242 2.56273 
105 2 9.15977 8.65323 4.53064 
150 2 12.9093 11.5422 3.05809 
82 1 10.4378 7.78675 3.87191 
47 1 7.57026 8.91462 4.43273 
66 2 11.6511 7.70768 4.9403 
8 1 11.5413 12.4287 2.81033 
46 2 0.497049 8.90737 2.73068 
143 2 12.5968 6.35208 2.68746 
91 1 12.0507 7.23908 6.43864 
29 2 12.0938 8.6045 7.31501 
64 2 10.8181 6.39472 7.0933 
134 2 0.401451 6.40775 6.61006 
69 2 11.101 10.6839 8.83489 
27 1 8.00462 7.71801 10.0345 
130 2 9.33828 7.06764 9.34396 
26 1 11.1838 11.9297 9.88719 
114 2 12.8624 8.92352 9.75752 
45 1 12.342 9.71624 8.44357 
60 2 9.73761 12.6312 10.0736 
59 1 8.41007 12.6944 10.9913 
38 1 8.06149 9.82412 12.5146 
100 2 8.18358 8.65666 11.3726 
3 2 11.7263 11.2715 11.2768 
107 2 8.22249 11.2506 11.7466 
73 1 12.7178 10.8224 12.5114 
1 2 0.0614429 6.77024 11.2578 
31 2 0.422901 12.2317 12.8773 
10 2 0.526826 9.49661 12.1288 
71 1 0.627184 8.29675 11.0253 
