ITEM: TIMESTEP
0
ITEM: NUMBER OF ATOMS
150
ITEM: BOX BOUNDS pp pp pp
-5.8117358035634766e-04 1.3040028824156812e+01
-5.8117358035634766e-04 1.3040028824156812e+01
-5.8117358035634766e-04 1.3040028824156812e+01
ITEM: ATOMS id type x y z 
70 2 1.4563 4.93435 1.72431 
128 2 3.43101 6.65263 1.08605 
40 1 3.54879 1.67604 2.80074 
32 1 1.10034 3.52429 2.42751 
50 1 1.86667 6.26351 0.90607 
101 2 3.41697 1.04995 1.28553 
95 2 0.464888 2.36444 1.46394 
62 2 2.48709 2.86303 2.98455 
124 2 5.10069 2.14254 3.0055 
55 1 6.49738 1.51676 3.57214 
54 1 5.89235 6.98027 4.97127 
21 2 4.49198 7.00691 4.16718 
14 2 0.0356499 3.75335 3.61983 
68 2 2.20241 6.57633 5.52875 
72 2 2.0091 5.47949 7.86192 
94 1 1.67163 1.71393 6.82038 
36 2 3.27372 1.74489 7.13551 
146 2 5.68379 6.3177 6.44924 
19 1 1.11555 6.14653 6.6567 
20 1 4.72487 1.23082 7.66749 
113 2 5.88195 2.36172 7.86201 
79 2 0.564318 2.06058 8.00434 
42 2 1.26335 2.76607 5.6598 
127 2 3.20594 4.14448 10.0845 
33 1 2.27537 5.34639 9.46096 
116 2 5.64665 2.94966 10.38 
112 2 0.74184 5.41012 10.0582 
131 2 6.27556 4.82576 8.73505 
56 2 3.05576 6.69531 9.96024 
52 1 6.56073 3.23744 9.0606 
139 2 3.87668 2.66216 12.2532 
117 2 5.17158 5.03488 11.7325 
77 1 4.24746 1.2173 12.9349 
110 2 1.57251 5.91511 12.3851 
16 1 6.40963 6.08025 11.941 
9 2 5.81824 1.28918 0.377566 
149 2 6.63023 7.05881 10.6587 
140 2 5.98552 6.94703 0.221116 
34 1 4.39762 3.7236 11.1289 
83 1 5.62509 10.3269 1.88347 
65 1 4.56235 7.67338 0.536546 
104 2 4.82925 8.9594 1.49004 
138 2 4.51993 11.3914 2.45979 
148 2 0.943128 7.56133 1.29121 
142 2 6.4618 10.7522 0.54847 
96 1 3.07665 7.61826 4.66504 
78 1 3.56684 11.8516 3.68581 
118 2 4.40972 11.3042 5.06899 
125 2 6.12845 0.0546657 4.19103 
115 2 2.1764 8.17585 3.45327 
87 2 2.07877 11.2374 3.6856 
121 2 6.68371 10.0869 3.12492 
61 2 6.40836 8.51926 5.14737 
39 2 3.37137 0.414147 3.82929 
92 1 0.471267 10.9657 3.90381 
102 2 0.36261 10.8483 5.53399 
58 1 5.83863 12.1647 5.48263 
89 1 0.646349 8.08897 2.81897 
137 2 7.0161 11.0657 5.53184 
132 2 3.49108 8.87626 5.64217 
90 2 2.56174 10.9954 6.91526 
80 1 3.88087 10.2792 6.31876 
67 1 1.05588 11.6261 6.79018 
41 2 5.05203 10.2501 7.43042 
12 2 1.30127 0.159114 6.42185 
44 2 5.3346 0.0458638 6.70812 
24 2 0.183354 11.436 8.13554 
120 2 5.30372 11.313 9.90815 
75 1 5.42505 9.96661 8.99648 
28 2 4.2725 8.96984 9.56052 
48 1 5.17039 12.8552 10.4108 
49 2 6.71445 0.319999 10.6701 
97 1 3.33817 8.15912 10.6042 
136 2 6.87807 9.29608 9.27332 
133 2 4.49652 0.596956 9.15204 
37 2 4.04077 8.11064 12.0771 
108 2 4.28637 0.087788 11.7547 
15 2 1.87849 8.84627 10.808 
25 1 12.4338 1.3044 0.847673 
109 2 8.33631 5.47118 1.95612 
11 1 7.33674 1.73395 0.77236 
99 2 7.54401 1.34828 2.34146 
135 2 11.3049 0.84846 1.96374 
74 2 7.49119 3.3387 0.653765 
63 1 8.45844 4.65355 0.560532 
126 2 9.56523 6.80282 3.92217 
51 2 7.03983 2.42765 4.78794 
88 2 8.81931 4.23864 4.31839 
84 1 8.16318 3.34322 5.52666 
17 1 8.49055 5.65186 3.56145 
122 2 7.05871 6.16131 4.19394 
5 2 10.6138 0.66709 4.59023 
93 1 13.0015 3.68699 5.22579 
81 2 11.6748 2.84998 5.6354 
43 2 11.3638 0.88593 7.20432 
4 2 7.54191 4.42161 6.57317 
103 2 7.94183 6.70337 7.75781 
129 2 9.207 2.29706 6.20858 
22 1 10.6536 1.61089 5.91679 
7 1 6.78144 5.6186 7.41248 
144 2 0.0785417 5.0361 6.09476 
2 1 9.36957 6.72674 8.57594 
76 2 8.16712 3.03443 9.22255 
13 1 9.69516 3.60007 9.45606 
23 2 9.58621 5.1956 9.09817 
106 2 10.9697 2.93515 8.66409 
86 1 12.0655 1.73315 8.44291 
6 2 12.0106 0.823469 9.78787 
30 2 7.86767 5.42875 12.2878 
111 2 12.1624 4.80839 12.0683 
57 1 11.0527 3.62531 12.331 
98 2 11.7099 2.17953 12.7104 
123 2 8.30542 1.02507 12.7292 
35 2 10.1022 3.43953 11.0206 
85 1 0.183175 5.9102 11.5061 
119 2 9.99754 4.14592 0.419608 
145 2 11.4779 10.9026 0.996912 
141 2 8.9611 10.1713 0.913602 
18 1 10.2365 10.3763 1.90047 
147 2 10.5354 8.99313 2.68472 
53 2 10.0332 11.6541 2.92378 
105 2 8.86348 9.2353 4.55327 
150 2 12.5294 12.1996 3.49733 
82 1 10.1752 8.29494 4.10999 
47 1 7.33796 9.7539 4.60938 
66 2 11.2376 8.32391 5.32201 
8 1 11.0531 12.8996 3.24655 
46 2 0.123492 9.61124 3.09489 
143 2 12.8812 6.94438 3.58051 
91 1 11.7175 8.06046 6.84659 
29 2 11.5685 9.51581 7.56514 
64 2 10.6101 7.13404 7.62343 
134 2 0.18604 7.44531 7.05533 
69 2 10.8533 11.5432 9.28664 
27 1 7.62322 8.32915 10.3545 
130 2 9.04719 7.7679 9.7975 
26 1 10.9137 12.7937 10.3308 
114 2 12.5339 9.61584 9.95301 
45 1 11.9902 10.5349 8.73049 
60 2 9.45544 0.458041 10.4058 
59 1 8.18433 0.15406 11.3574 
38 1 7.84987 10.3839 12.7899 
100 2 7.71087 9.11136 11.787 
3 2 11.4088 12.1344 11.7317 
107 2 8.26804 11.6376 11.8419 
73 1 12.4222 11.5325 12.8797 
1 2 12.7993 7.49628 11.499 
31 2 0.0718724 12.9141 0.398313 
10 2 0.224477 10.2571 12.3125 
71 1 0.313996 9.02587 11.2299 
