ITEM: TIMESTEP
2
ITEM: NUMBER OF ATOMS
150
ITEM: BOX BOUNDS pp pp pp
0.0000000000000000e+00 1.3126546847952962e+01
0.0000000000000000e+00 1.3126546847952962e+01
0.0000000000000000e+00 1.3126546847952962e+01
ITEM: ATOMS id type xs ys zs
70 2 0.133297 0.366218 0.148995
128 2 0.263 0.509938 0.0858126
40 1 0.290008 0.112595 0.217138
32 1 0.104618 0.253963 0.191721
50 1 0.145932 0.46979 0.0829187
101 2 0.274849 0.063806 0.103066
95 2 0.0588767 0.171903 0.110474
62 2 0.209759 0.20316 0.235128
124 2 0.410082 0.146221 0.225164
55 1 0.517755 0.104752 0.270718
54 1 0.463176 0.524005 0.395287
21 2 0.358468 0.525493 0.33317
14 2 0.0227645 0.266893 0.281797
68 2 0.187296 0.500914 0.444723
72 2 0.164855 0.419192 0.623374
94 1 0.131525 0.115684 0.541025
36 2 0.253053 0.123372 0.566949
146 2 0.445607 0.467521 0.503957
19 1 0.10024 0.461171 0.522863
20 1 0.363733 0.0802839 0.600123
113 2 0.451422 0.166854 0.613576
79 2 0.047064 0.152028 0.624966
42 2 0.102294 0.184964 0.438071
127 2 0.256972 0.302503 0.784688
33 1 0.184083 0.396068 0.742989
116 2 0.443525 0.21279 0.803207
112 2 0.0667914 0.394011 0.787378
131 2 0.494537 0.353862 0.676346
56 2 0.240017 0.497107 0.790869
52 1 0.511112 0.232714 0.701572
139 2 0.308981 0.185276 0.946539
117 2 0.404377 0.370399 0.912515
77 1 0.334882 0.074521 0.995119
110 2 0.113827 0.435837 0.968777
16 1 0.49576 0.452556 0.931078
9 2 0.456631 0.0760326 0.0251829
149 2 0.516598 0.528051 0.834174
140 2 0.460475 0.523614 0.0277962
34 1 0.348799 0.270255 0.863137
83 1 0.442367 0.778131 0.15662
65 1 0.354941 0.583636 0.0499811
104 2 0.379119 0.673897 0.130336
138 2 0.360429 0.863023 0.197453
148 2 0.0707238 0.562959 0.116927
142 2 0.506655 0.805472 0.0546013
96 1 0.250201 0.574689 0.36946
78 1 0.284487 0.897147 0.289395
118 2 0.349416 0.861526 0.39678
125 2 0.487187 0.00242062 0.334871
115 2 0.181366 0.604618 0.272987
87 2 0.171268 0.849715 0.288788
121 2 0.521031 0.759906 0.254479
61 2 0.498237 0.648748 0.413087
39 2 0.274486 0.0186933 0.298018
92 1 0.0496787 0.82591 0.310941
102 2 0.0426697 0.81791 0.43358
58 1 0.45754 0.928761 0.428941
89 1 0.0608947 0.601363 0.235985
137 2 0.542879 0.842049 0.43384
132 2 0.277724 0.677981 0.434241
90 2 0.208684 0.834784 0.539074
80 1 0.309413 0.78178 0.491709
67 1 0.0923931 0.876769 0.533123
41 2 0.394797 0.773065 0.579987
12 2 0.105512 0.998348 0.512911
44 2 0.414833 0.995689 0.523283
24 2 0.0279087 0.855269 0.635458
120 2 0.411832 0.846225 0.771526
75 1 0.419652 0.744616 0.699376
28 2 0.327545 0.670313 0.73787
48 1 0.402289 0.965075 0.80524
49 2 0.520009 0.00529827 0.820881
97 1 0.25961 0.615052 0.825258
136 2 0.529943 0.69316 0.722679
133 2 0.349606 0.0224848 0.709114
37 2 0.318042 0.620931 0.936109
108 2 0.333138 0.988047 0.906057
15 2 0.147605 0.666099 0.83879
25 1 0.973042 0.0922301 0.065855
109 2 0.637364 0.396574 0.166133
11 1 0.570063 0.113278 0.0581504
99 2 0.591156 0.0767707 0.175978
135 2 0.894786 0.056658 0.160213
74 2 0.57577 0.236263 0.0623376
63 1 0.648647 0.336713 0.0583736
126 2 0.74227 0.525883 0.28317
51 2 0.566151 0.187486 0.347881
88 2 0.700885 0.333727 0.350778
84 1 0.643628 0.249796 0.422433
17 1 0.663892 0.431698 0.281938
122 2 0.558572 0.472622 0.338504
5 2 0.836213 0.0445219 0.357415
93 1 0.0153652 0.265343 0.406365
81 2 0.909251 0.212093 0.44257
43 2 0.880034 0.059695 0.557772
4 2 0.580463 0.317357 0.50705
103 2 0.622403 0.490664 0.597112
129 2 0.718912 0.165613 0.472612
22 1 0.832477 0.116368 0.458362
7 1 0.530846 0.410779 0.571967
144 2 0.0384698 0.367791 0.472864
2 1 0.727613 0.498068 0.666313
76 2 0.634021 0.214923 0.714099
13 1 0.747292 0.261896 0.737426
23 2 0.741413 0.382781 0.712199
106 2 0.845597 0.212666 0.670568
86 1 0.927635 0.125507 0.654396
6 2 0.923572 0.0476465 0.750835
30 2 0.603486 0.398625 0.960854
111 2 0.927281 0.35959 0.931393
57 1 0.849525 0.266332 0.956655
98 2 0.908651 0.161088 0.984731
123 2 0.646533 0.0696882 0.971893
35 2 0.778692 0.246612 0.855497
85 1 0.016021 0.438886 0.892189
119 2 0.766613 0.301483 0.0436571
145 2 0.891834 0.835675 0.0838165
141 2 0.701295 0.774267 0.0726317
18 1 0.793077 0.801572 0.1514
147 2 0.816096 0.705798 0.225366
53 2 0.776083 0.903668 0.222431
105 2 0.683028 0.698681 0.364698
150 2 0.971352 0.918711 0.279017
82 1 0.784549 0.636051 0.322365
47 1 0.565323 0.735951 0.368803
66 2 0.860189 0.620565 0.418335
8 1 0.867557 0.983606 0.25405
46 2 0.0244242 0.717855 0.256336
143 2 0.00368108 0.517625 0.301368
91 1 0.905504 0.599361 0.531387
29 2 0.900106 0.711012 0.585188
64 2 0.824485 0.528341 0.595876
134 2 0.0207573 0.554716 0.546925
69 2 0.841891 0.868347 0.706275
27 1 0.592532 0.622763 0.805702
130 2 0.69784 0.577215 0.759053
26 1 0.843681 0.961308 0.786663
114 2 0.963501 0.720556 0.772396
45 1 0.931668 0.788096 0.674423
60 2 0.731181 0.0108968 0.797808
59 1 0.634275 0.99794 0.872568
38 1 0.611366 0.784218 0.989381
100 2 0.603309 0.687203 0.911817
3 2 0.882372 0.911566 0.897405
107 2 0.637048 0.882049 0.917706
73 1 0.957543 0.876736 0.988255
1 2 0.989041 0.560607 0.889972
31 2 0.0130869 0.981667 0.0228588
10 2 0.0204217 0.774802 0.949651
71 1 0.027352 0.679308 0.870283
