ITEM: TIMESTEP
2
ITEM: NUMBER OF ATOMS
150
ITEM: BOX BOUNDS pp pp pp
0.0000000000000000e+00 1.3164948846846332e+01
0.0000000000000000e+00 1.3164948846846332e+01
0.0000000000000000e+00 1.3164948846846332e+01
ITEM: ATOMS id type xs ys zs
70 2 0.113618 0.329388 0.107269
128 2 0.242717 0.477146 0.045564
40 1 0.265738 0.0701243 0.183243
32 1 0.0912628 0.224484 0.168025
50 1 0.12539 0.438682 0.0516751
101 2 0.262206 0.034275 0.0638397
95 2 0.0335068 0.136736 0.100358
62 2 0.198645 0.171073 0.19952
124 2 0.384075 0.0886773 0.215336
55 1 0.503879 0.0819721 0.245738
54 1 0.440107 0.493391 0.367674
21 2 0.331156 0.50933 0.313696
14 2 0.021423 0.248027 0.266586
68 2 0.156432 0.458412 0.40656
72 2 0.122857 0.386287 0.581933
94 1 0.107822 0.0931171 0.514129
36 2 0.224997 0.0859534 0.553254
146 2 0.429392 0.430999 0.473371
19 1 0.0616343 0.432503 0.482323
20 1 0.340131 0.0440871 0.568188
113 2 0.433674 0.124473 0.589367
79 2 0.0147023 0.104239 0.596435
42 2 0.0940591 0.188338 0.438123
127 2 0.230492 0.284015 0.745851
33 1 0.155163 0.375204 0.700955
116 2 0.419209 0.187027 0.772196
112 2 0.0428935 0.387267 0.756072
131 2 0.471119 0.317139 0.63922
56 2 0.217175 0.478671 0.731881
52 1 0.491741 0.198184 0.672046
139 2 0.284097 0.161434 0.906893
117 2 0.378056 0.347273 0.87234
77 1 0.317989 0.0512771 0.955177
110 2 0.0863557 0.427104 0.936191
16 1 0.472898 0.42558 0.889969
9 2 0.439004 0.0565671 0.986003
149 2 0.49686 0.49834 0.793078
140 2 0.441106 0.493233 0.989714
34 1 0.321658 0.247019 0.824023
83 1 0.407886 0.742078 0.118299
65 1 0.331341 0.549854 0.000686504
104 2 0.341095 0.649684 0.0718886
138 2 0.331792 0.828124 0.166142
148 2 0.0519971 0.525175 0.101824
142 2 0.480581 0.7775 0.0242509
96 1 0.220769 0.548108 0.352704
78 1 0.246136 0.854469 0.251628
118 2 0.301377 0.820191 0.360111
125 2 0.509658 0.990842 0.328101
115 2 0.151239 0.58579 0.258843
87 2 0.134339 0.807264 0.237281
121 2 0.476772 0.704326 0.215916
61 2 0.481447 0.607443 0.392552
39 2 0.229644 0.976614 0.254831
92 1 0.0141198 0.793264 0.268587
102 2 0.0180807 0.804386 0.392659
58 1 0.448967 0.912362 0.398169
89 1 0.0337775 0.567678 0.216811
137 2 0.503266 0.805945 0.386409
132 2 0.242758 0.644171 0.43068
90 2 0.176428 0.818714 0.512447
80 1 0.274668 0.758018 0.468044
67 1 0.0648233 0.867924 0.487839
41 2 0.36947 0.764382 0.548118
12 2 0.082046 0.98624 0.45576
44 2 0.37691 0.974223 0.472588
24 2 0.990927 0.860925 0.585916
120 2 0.41059 0.812312 0.749798
75 1 0.401671 0.724074 0.661835
28 2 0.304728 0.655021 0.694526
48 1 0.388788 0.932006 0.771663
49 2 0.499115 0.989251 0.783605
97 1 0.242079 0.590046 0.777775
136 2 0.505934 0.658773 0.674127
133 2 0.336976 0.970843 0.66689
37 2 0.305381 0.579778 0.883609
108 2 0.31716 0.963738 0.867501
15 2 0.136325 0.646615 0.805973
25 1 0.939373 0.0784152 0.0455774
109 2 0.61226 0.378183 0.125206
11 1 0.550906 0.0910785 0.0251323
99 2 0.564837 0.0537494 0.142012
135 2 0.859183 0.0462577 0.136423
74 2 0.555358 0.213675 0.0291975
63 1 0.62428 0.316057 0.0197792
126 2 0.706576 0.509103 0.248032
51 2 0.544444 0.183643 0.300916
88 2 0.683876 0.318366 0.309493
84 1 0.627993 0.232408 0.378853
17 1 0.634634 0.410281 0.241778
122 2 0.527115 0.439076 0.298794
5 2 0.807802 0.996838 0.327058
93 1 0.994212 0.241832 0.385923
81 2 0.900837 0.161488 0.402587
43 2 0.840177 0.0248459 0.527383
4 2 0.571134 0.287994 0.473445
103 2 0.605278 0.457443 0.569472
129 2 0.703107 0.142838 0.41899
22 1 0.809239 0.0786287 0.419658
7 1 0.515841 0.37685 0.541712
144 2 0.980498 0.345547 0.449766
2 1 0.711218 0.47594 0.633878
76 2 0.616113 0.195024 0.685849
13 1 0.733035 0.239484 0.702681
23 2 0.734676 0.361634 0.677747
106 2 0.821279 0.181328 0.637141
86 1 0.896446 0.0829995 0.623179
6 2 0.891311 0.0130045 0.724454
30 2 0.580115 0.370937 0.918661
111 2 0.90024 0.360169 0.895713
57 1 0.83095 0.259631 0.922369
98 2 0.894038 0.161852 0.96607
123 2 0.628019 0.0499784 0.939077
35 2 0.768377 0.22628 0.820476
85 1 0.99109 0.436304 0.857856
119 2 0.743237 0.287597 0.0053925
145 2 0.870672 0.794474 0.0403741
141 2 0.674384 0.743244 0.0300916
18 1 0.768499 0.770934 0.105002
147 2 0.786376 0.680008 0.184539
53 2 0.750843 0.877619 0.167931
105 2 0.651542 0.683097 0.321021
150 2 0.940402 0.883998 0.228062
82 1 0.752363 0.6176 0.284782
47 1 0.5309 0.700588 0.328828
66 2 0.827208 0.604995 0.381294
8 1 0.836799 0.953745 0.215611
46 2 0.985357 0.680306 0.231228
143 2 0.978731 0.48261 0.282496
91 1 0.880924 0.584756 0.49089
29 2 0.886988 0.69625 0.544992
64 2 0.802387 0.517541 0.561983
134 2 0.995872 0.536773 0.499059
69 2 0.812094 0.836753 0.673637
27 1 0.566667 0.597378 0.763785
130 2 0.676544 0.556426 0.722869
26 1 0.810999 0.92642 0.758108
114 2 0.965416 0.719797 0.727389
45 1 0.912019 0.777794 0.632027
60 2 0.701668 0.981508 0.764501
59 1 0.607432 0.976547 0.842171
38 1 0.579997 0.757933 0.951994
100 2 0.570061 0.666747 0.867872
3 2 0.848645 0.876289 0.864188
107 2 0.601742 0.862076 0.889131
73 1 0.933589 0.853949 0.953229
1 2 0.968302 0.559689 0.851003
31 2 0.965583 0.967805 0.994093
10 2 0.0139078 0.769209 0.909848
71 1 0.0190625 0.673362 0.829422
