ITEM: TIMESTEP
2
ITEM: NUMBER OF ATOMS
150
ITEM: BOX BOUNDS pp pp pp
0.0000000000000000e+00 1.3056099990775454e+01
0.0000000000000000e+00 1.3056099990775454e+01
0.0000000000000000e+00 1.3056099990775454e+01
ITEM: ATOMS id type xs ys zs
70 2 0.0843374 0.349202 0.130787
128 2 0.221323 0.48503 0.0440557
40 1 0.23498 0.091296 0.201459
32 1 0.0482297 0.234819 0.177267
50 1 0.106133 0.444228 0.0483733
101 2 0.226205 0.0409682 0.0809372
95 2 4.64313e-05 0.15395 0.0964626
62 2 0.151815 0.178922 0.21531
124 2 0.350282 0.124489 0.21661
55 1 0.454895 0.0808269 0.260916
54 1 0.418777 0.481954 0.358599
21 2 0.313571 0.485593 0.29516
14 2 0.972178 0.255947 0.272447
68 2 0.136896 0.466931 0.398901
72 2 0.149598 0.405685 0.588218
94 1 0.0874822 0.0746128 0.508943
36 2 0.207191 0.074217 0.539065
146 2 0.411807 0.432238 0.470994
19 1 0.0692216 0.435155 0.4967
20 1 0.320203 0.0444501 0.580688
113 2 0.408874 0.133 0.587015
79 2 0.00467208 0.10819 0.600955
42 2 0.0532379 0.146927 0.41658
127 2 0.223492 0.278085 0.746654
33 1 0.164138 0.383441 0.709304
116 2 0.404231 0.181021 0.779847
112 2 0.0441443 0.387622 0.748212
131 2 0.450484 0.322367 0.647323
56 2 0.224435 0.473438 0.766882
52 1 0.470124 0.200485 0.673303
139 2 0.257746 0.153536 0.91422
117 2 0.36313 0.333505 0.896681
77 1 0.291784 0.0516289 0.973458
110 2 0.0730701 0.389952 0.939897
16 1 0.461087 0.413608 0.909417
9 2 0.411594 0.0678967 0.0109217
149 2 0.474564 0.485741 0.809923
140 2 0.423077 0.484326 0.0089981
34 1 0.302401 0.237832 0.837454
83 1 0.402781 0.75139 0.129629
65 1 0.319337 0.555249 0.0238705
104 2 0.339706 0.645318 0.10747
138 2 0.322515 0.837516 0.175263
148 2 0.0274037 0.536032 0.0726776
142 2 0.467759 0.774465 0.0253141
96 1 0.206069 0.537235 0.326103
78 1 0.244517 0.866576 0.267645
118 2 0.306756 0.829051 0.377623
125 2 0.434237 0.978954 0.32952
115 2 0.13473 0.570399 0.230703
87 2 0.133534 0.813078 0.269158
121 2 0.483438 0.730448 0.224075
61 2 0.452751 0.603722 0.3743
39 2 0.22274 0.990016 0.2754
92 1 0.00914626 0.796497 0.27841
102 2 0.99231 0.779089 0.403712
58 1 0.413732 0.89177 0.415758
89 1 0.0122117 0.578227 0.187809
137 2 0.500599 0.802387 0.408102
132 2 0.237653 0.640116 0.394472
90 2 0.160501 0.785618 0.511716
80 1 0.263559 0.739806 0.463486
67 1 0.0463274 0.830981 0.50518
41 2 0.355486 0.731696 0.54835
12 2 0.0589355 0.954814 0.47947
44 2 0.374724 0.950219 0.518283
24 2 0.979185 0.818211 0.606674
120 2 0.374425 0.826788 0.736908
75 1 0.374626 0.720484 0.674013
28 2 0.273568 0.657512 0.713469
48 1 0.361215 0.937791 0.788828
49 2 0.48285 0.976612 0.809568
97 1 0.230413 0.58847 0.807433
136 2 0.48087 0.659046 0.708821
133 2 0.307705 0.00557001 0.698766
37 2 0.301981 0.605458 0.908666
108 2 0.300915 0.958676 0.893758
15 2 0.112688 0.619512 0.839967
25 1 0.927292 0.0668729 0.0464184
109 2 0.605445 0.353263 0.13262
11 1 0.531863 0.0716112 0.0491389
99 2 0.532613 0.0514762 0.170659
135 2 0.843291 0.0267961 0.132189
74 2 0.581877 0.184533 0.0247928
63 1 0.632031 0.301876 0.0218539
126 2 0.700836 0.483684 0.259655
51 2 0.503341 0.165231 0.340519
88 2 0.658612 0.286702 0.317215
84 1 0.602424 0.216611 0.40292
17 1 0.624498 0.386464 0.250877
122 2 0.514626 0.424666 0.302128
5 2 0.80199 0.0185074 0.334166
93 1 0.969049 0.233695 0.394236
81 2 0.861167 0.185496 0.43078
43 2 0.834493 0.0245968 0.538134
4 2 0.557747 0.291772 0.490633
103 2 0.58041 0.467375 0.578853
129 2 0.67135 0.122406 0.446547
22 1 0.789616 0.084917 0.44009
7 1 0.493503 0.382384 0.547399
144 2 5.18127e-05 0.331599 0.468218
2 1 0.686242 0.464082 0.652781
76 2 0.589599 0.175149 0.686631
13 1 0.700715 0.22194 0.710334
23 2 0.688187 0.346321 0.694887
106 2 0.804367 0.177691 0.658353
86 1 0.884657 0.0843764 0.634358
6 2 0.883815 0.00933771 0.734735
30 2 0.568612 0.361014 0.935556
111 2 0.894143 0.316243 0.869837
57 1 0.819183 0.23111 0.92133
98 2 0.867924 0.123543 0.954965
123 2 0.595178 0.991303 0.979704
35 2 0.724061 0.205906 0.835889
85 1 0.980534 0.404494 0.853903
119 2 0.753883 0.286066 0.00997736
145 2 0.853041 0.803578 0.0681799
141 2 0.661514 0.740266 0.0555926
18 1 0.753473 0.76369 0.136357
147 2 0.780572 0.662787 0.203651
53 2 0.74225 0.861634 0.211804
105 2 0.643542 0.657278 0.338621
150 2 0.940028 0.895453 0.249833
82 1 0.745346 0.592703 0.301849
47 1 0.527727 0.700105 0.338966
66 2 0.814197 0.578318 0.405007
8 1 0.828506 0.94976 0.231589
46 2 0.987239 0.697112 0.208873
143 2 0.944254 0.50529 0.255866
91 1 0.861812 0.560984 0.518829
29 2 0.851637 0.668552 0.578322
64 2 0.788355 0.482559 0.584404
134 2 0.983213 0.523386 0.523762
69 2 0.798371 0.82923 0.69855
27 1 0.546718 0.583893 0.788898
130 2 0.656108 0.548527 0.739909
26 1 0.805077 0.924891 0.782882
114 2 0.937981 0.691493 0.757894
45 1 0.889241 0.751407 0.659627
60 2 0.694094 0.980504 0.795421
59 1 0.594245 0.946857 0.862498
38 1 0.573857 0.740961 0.967619
100 2 0.560044 0.637574 0.900513
3 2 0.852291 0.879346 0.886189
107 2 0.600981 0.823556 0.878767
73 1 0.928057 0.8413 0.975234
1 2 0.943367 0.526119 0.867565
31 2 0.981732 0.952833 0.0154061
10 2 0.987839 0.73851 0.940395
71 1 0.990133 0.643137 0.862023
