ITEM: TIMESTEP
2
ITEM: NUMBER OF ATOMS
150
ITEM: BOX BOUNDS pp pp pp
0.0000000000000000e+00 1.3121338811240197e+01
0.0000000000000000e+00 1.3121338811240197e+01
0.0000000000000000e+00 1.3121338811240197e+01
ITEM: ATOMS id type xs ys zs
70 2 0.107469 0.338563 0.069923
128 2 0.23845 0.485374 0.0129917
40 1 0.266985 0.0852319 0.149522
32 1 0.0825747 0.227555 0.117718
50 1 0.122586 0.443561 0.00670814
101 2 0.259858 0.0420893 0.0316442
95 2 0.0335498 0.137949 0.0447261
62 2 0.189703 0.179697 0.159958
124 2 0.386708 0.114379 0.165576
55 1 0.494046 0.0614675 0.2005
54 1 0.444924 0.493281 0.310274
21 2 0.339391 0.492027 0.246452
14 2 0.00341827 0.243518 0.211483
68 2 0.166441 0.464537 0.358202
72 2 0.151207 0.397594 0.542269
94 1 0.112692 0.0895728 0.469991
36 2 0.233471 0.101212 0.495385
146 2 0.428992 0.436469 0.419573
19 1 0.0822188 0.430978 0.44309
20 1 0.340205 0.0533975 0.535546
113 2 0.434076 0.133371 0.545207
79 2 0.0282812 0.122682 0.556825
42 2 0.0809949 0.14765 0.365832
127 2 0.229728 0.28351 0.704439
33 1 0.161819 0.38036 0.664009
116 2 0.414142 0.193353 0.73033
112 2 0.0430244 0.385806 0.704937
131 2 0.470271 0.324794 0.594393
56 2 0.222205 0.477625 0.714938
52 1 0.487387 0.205923 0.630629
139 2 0.270921 0.15916 0.863398
117 2 0.369782 0.341789 0.847743
77 1 0.313167 0.0568422 0.920792
110 2 0.0929079 0.410495 0.890745
16 1 0.469988 0.412226 0.872599
9 2 0.433936 0.081461 0.946373
149 2 0.499244 0.485586 0.776114
140 2 0.437921 0.485903 0.967167
34 1 0.315719 0.246739 0.786959
83 1 0.415967 0.750201 0.0856527
65 1 0.335622 0.554183 0.981975
104 2 0.360735 0.642025 0.0634586
138 2 0.327882 0.827624 0.129451
148 2 0.0449726 0.533662 0.045571
142 2 0.475768 0.777499 0.980703
96 1 0.23145 0.538741 0.284376
78 1 0.257746 0.86666 0.22362
118 2 0.318935 0.83027 0.331293
125 2 0.457785 0.967679 0.272705
115 2 0.154852 0.577918 0.197375
87 2 0.143053 0.822741 0.230145
121 2 0.496106 0.732836 0.180579
61 2 0.479733 0.610259 0.33368
39 2 0.248396 0.989923 0.227356
92 1 0.0197547 0.79934 0.242619
102 2 0.00900395 0.803453 0.367561
58 1 0.425309 0.895908 0.367638
89 1 0.0333762 0.572888 0.164563
137 2 0.511697 0.808078 0.366914
132 2 0.26102 0.641662 0.350835
90 2 0.17718 0.788069 0.468631
80 1 0.27937 0.742227 0.418419
67 1 0.0687332 0.84851 0.46711
41 2 0.3629 0.740363 0.509594
12 2 0.0916913 0.968691 0.451205
44 2 0.382084 0.962117 0.461524
24 2 0.0105918 0.830701 0.573762
120 2 0.39868 0.823732 0.698866
75 1 0.386177 0.720258 0.630665
28 2 0.286442 0.662044 0.676382
48 1 0.385712 0.941434 0.735768
49 2 0.502171 0.986518 0.743574
97 1 0.236017 0.590847 0.763958
136 2 0.485212 0.648906 0.653915
133 2 0.323604 0.00161563 0.64707
37 2 0.305918 0.597712 0.867517
108 2 0.322816 0.961633 0.841359
15 2 0.121109 0.625552 0.793866
25 1 0.947203 0.0611046 0.999228
109 2 0.633194 0.380499 0.09438
11 1 0.54878 0.0868587 0.993398
99 2 0.54886 0.0191536 0.097366
135 2 0.864642 0.0318909 0.0896853
74 2 0.583694 0.198027 0.0323946
63 1 0.639541 0.303757 0.999315
126 2 0.722707 0.499409 0.232962
51 2 0.559976 0.144098 0.263636
88 2 0.685485 0.301193 0.278694
84 1 0.62312 0.21494 0.343474
17 1 0.65069 0.401823 0.214478
122 2 0.538059 0.433087 0.257304
5 2 0.809607 0.0134746 0.287679
93 1 0.995849 0.23416 0.333779
81 2 0.889038 0.181413 0.367511
43 2 0.861154 0.0295355 0.484285
4 2 0.552358 0.277337 0.42359
103 2 0.605655 0.451395 0.51204
129 2 0.699346 0.139196 0.405054
22 1 0.810096 0.0874736 0.386927
7 1 0.510446 0.375216 0.4888
144 2 0.0203006 0.330517 0.406199
2 1 0.704576 0.470509 0.586751
76 2 0.60999 0.190283 0.644738
13 1 0.727328 0.233304 0.658878
23 2 0.721744 0.356446 0.636048
106 2 0.823844 0.185434 0.594573
86 1 0.909557 0.0952901 0.580016
6 2 0.899876 0.0203787 0.677566
30 2 0.569558 0.345707 0.90503
111 2 0.910494 0.325084 0.846067
57 1 0.831131 0.232889 0.876625
98 2 0.88971 0.127312 0.909608
123 2 0.620622 0.0450456 0.902309
35 2 0.758038 0.215044 0.777938
85 1 0.99292 0.412811 0.815589
119 2 0.756361 0.275681 0.967274
145 2 0.853166 0.812356 0.010125
141 2 0.667869 0.745556 0.00409177
18 1 0.760546 0.772967 0.0820374
147 2 0.786113 0.67403 0.151474
53 2 0.742905 0.874331 0.153967
105 2 0.661188 0.680543 0.296981
150 2 0.938493 0.883106 0.199848
82 1 0.761189 0.614216 0.257764
47 1 0.542086 0.710894 0.295575
66 2 0.84493 0.608442 0.348309
8 1 0.835532 0.953626 0.182631
46 2 0.998799 0.690574 0.187289
143 2 0.980888 0.486176 0.231914
91 1 0.887582 0.574612 0.460077
29 2 0.887831 0.679253 0.527519
64 2 0.802341 0.501959 0.517056
134 2 0.00101435 0.523033 0.468425
69 2 0.821932 0.840499 0.637203
27 1 0.558912 0.587317 0.733693
130 2 0.663002 0.55311 0.672294
26 1 0.821388 0.934585 0.718046
114 2 0.95053 0.701425 0.714304
45 1 0.914999 0.762717 0.613001
60 2 0.708879 0.9819 0.73312
59 1 0.609497 0.969968 0.804308
38 1 0.580816 0.75271 0.91656
100 2 0.574047 0.655484 0.838669
3 2 0.863297 0.888223 0.82564
107 2 0.60435 0.852805 0.846709
73 1 0.931916 0.847267 0.921944
1 2 0.953539 0.531793 0.82591
31 2 0.990775 0.949955 0.962404
10 2 0.993075 0.742147 0.896232
71 1 0.000767666 0.647862 0.814663
