ITEM: TIMESTEP
2
ITEM: NUMBER OF ATOMS
150
ITEM: BOX BOUNDS pp pp pp
0.0000000000000000e+00 1.3118869486975715e+01
0.0000000000000000e+00 1.3118869486975715e+01
0.0000000000000000e+00 1.3118869486975715e+01
ITEM: ATOMS id type xs ys zs
70 2 0.0949104 0.340118 0.0698098
128 2 0.240069 0.473131 0.0110132
40 1 0.253738 0.0844449 0.140492
32 1 0.068755 0.230649 0.120238
50 1 0.120494 0.441094 0.00417501
101 2 0.247354 0.0428319 0.0225986
95 2 0.0144399 0.144168 0.0480778
62 2 0.175022 0.176823 0.156602
124 2 0.372432 0.117869 0.157865
55 1 0.478827 0.0651676 0.196076
54 1 0.424516 0.499129 0.309504
21 2 0.316851 0.50297 0.249298
14 2 0.993896 0.25052 0.215111
68 2 0.150175 0.462393 0.358738
72 2 0.134379 0.395228 0.54357
94 1 0.0955508 0.0900695 0.46855
36 2 0.215151 0.0958789 0.500689
146 2 0.412587 0.440842 0.418863
19 1 0.0671812 0.429306 0.444547
20 1 0.329766 0.0558006 0.525801
113 2 0.420146 0.13964 0.542029
79 2 0.00564394 0.125608 0.549001
42 2 0.0768485 0.158863 0.36775
127 2 0.224324 0.290867 0.705189
33 1 0.151477 0.383959 0.665373
116 2 0.403206 0.192757 0.729493
112 2 0.0335062 0.384481 0.707557
131 2 0.454596 0.331021 0.596225
56 2 0.210951 0.48332 0.712494
52 1 0.473776 0.211174 0.628775
139 2 0.265933 0.17642 0.869674
117 2 0.376302 0.352171 0.835431
77 1 0.305809 0.0679172 0.916772
110 2 0.0929726 0.41092 0.887702
16 1 0.476768 0.422123 0.859991
9 2 0.425501 0.088108 0.947866
149 2 0.502567 0.49811 0.765448
140 2 0.442848 0.488306 0.960386
34 1 0.311922 0.257163 0.786718
83 1 0.407396 0.747999 0.0873624
65 1 0.335096 0.546887 0.981957
104 2 0.354213 0.637878 0.0630876
138 2 0.31572 0.821695 0.13104
148 2 0.0469676 0.538223 0.0330718
142 2 0.461836 0.77667 0.979333
96 1 0.208478 0.546363 0.29018
78 1 0.239575 0.8649 0.218676
118 2 0.301765 0.829478 0.327198
125 2 0.44309 0.961643 0.25369
115 2 0.130357 0.583007 0.202725
87 2 0.123916 0.823446 0.221797
121 2 0.490159 0.740861 0.182611
61 2 0.462565 0.61605 0.331352
39 2 0.233744 0.988385 0.216792
92 1 0.00088041 0.798915 0.236805
102 2 0.994865 0.797054 0.362193
58 1 0.409479 0.897704 0.353541
89 1 0.0161201 0.580049 0.1476
137 2 0.49596 0.811829 0.370011
132 2 0.238821 0.643349 0.364735
90 2 0.162389 0.801201 0.467561
80 1 0.264127 0.749102 0.422299
67 1 0.048186 0.850359 0.46123
41 2 0.34847 0.75122 0.512322
12 2 0.0663063 0.971861 0.442957
44 2 0.368366 0.975279 0.439376
24 2 0.987447 0.828632 0.565408
120 2 0.392814 0.828067 0.70305
75 1 0.379107 0.727572 0.630881
28 2 0.284429 0.664157 0.679947
48 1 0.379497 0.94804 0.731593
49 2 0.494471 0.995662 0.742929
97 1 0.231625 0.593232 0.766392
136 2 0.482312 0.659791 0.642985
133 2 0.321324 0.996128 0.633686
37 2 0.303702 0.591285 0.86813
108 2 0.314223 0.976701 0.833353
15 2 0.119057 0.6325 0.80029
25 1 0.931405 0.0639158 0.00324655
109 2 0.632742 0.396865 0.086328
11 1 0.54067 0.103343 0.991629
99 2 0.54774 0.038103 0.096477
135 2 0.847195 0.0339053 0.0923009
74 2 0.564131 0.219421 0.0251517
63 1 0.635144 0.316636 0.993291
126 2 0.702337 0.503194 0.248534
51 2 0.535296 0.141435 0.274321
88 2 0.655394 0.302174 0.26461
84 1 0.603982 0.219269 0.34225
17 1 0.630496 0.411223 0.209216
122 2 0.514748 0.443489 0.245556
5 2 0.787294 0.0132298 0.288529
93 1 0.983326 0.235517 0.336022
81 2 0.876487 0.178205 0.359549
43 2 0.839178 0.033979 0.486209
4 2 0.539891 0.287496 0.423693
103 2 0.589211 0.458325 0.516981
129 2 0.684902 0.147956 0.403352
22 1 0.792692 0.0902346 0.385331
7 1 0.4945 0.382579 0.490757
144 2 0.998315 0.33513 0.405914
2 1 0.69269 0.474871 0.585864
76 2 0.597096 0.201627 0.643544
13 1 0.714498 0.241668 0.663484
23 2 0.713983 0.364204 0.639423
106 2 0.807893 0.18719 0.600904
86 1 0.890297 0.0954146 0.583287
6 2 0.887983 0.0206635 0.681863
30 2 0.578586 0.357671 0.889544
111 2 0.910895 0.32305 0.854678
57 1 0.824595 0.235836 0.878598
98 2 0.876081 0.127015 0.911251
123 2 0.612791 0.066614 0.89824
35 2 0.747791 0.223573 0.78167
85 1 0.988589 0.412977 0.819495
119 2 0.750571 0.278722 0.969285
145 2 0.839688 0.810706 0.0133172
141 2 0.65257 0.744036 0.00323042
18 1 0.744268 0.771052 0.0821541
147 2 0.766658 0.673176 0.154253
53 2 0.726498 0.872399 0.154503
105 2 0.651093 0.685482 0.308254
150 2 0.92117 0.88749 0.202565
82 1 0.749096 0.616918 0.263898
47 1 0.53182 0.715119 0.299926
66 2 0.838322 0.613383 0.348963
8 1 0.816389 0.954618 0.183729
46 2 0.979647 0.697417 0.16917
143 2 0.944127 0.497122 0.198896
91 1 0.874701 0.573189 0.460454
29 2 0.870987 0.672055 0.535393
64 2 0.787865 0.499369 0.511057
134 2 0.988873 0.52363 0.465354
69 2 0.808316 0.834358 0.651233
27 1 0.557721 0.602393 0.723701
130 2 0.662519 0.564842 0.667433
26 1 0.812103 0.933617 0.72616
114 2 0.947671 0.700022 0.716263
45 1 0.899503 0.75762 0.617952
60 2 0.70002 0.984676 0.734044
59 1 0.600764 0.984496 0.806293
38 1 0.568546 0.763018 0.914238
100 2 0.56971 0.675715 0.824936
3 2 0.857337 0.887985 0.832405
107 2 0.594273 0.872099 0.860446
73 1 0.9239 0.846664 0.93036
1 2 0.950495 0.53224 0.825898
31 2 0.978225 0.952581 0.97069
10 2 0.984554 0.741443 0.902009
71 1 0.997811 0.648995 0.81834
