ITEM: TIMESTEP
2
ITEM: NUMBER OF ATOMS
150
ITEM: BOX BOUNDS pp pp pp
0.0000000000000000e+00 1.3113426678729802e+01
0.0000000000000000e+00 1.3113426678729802e+01
0.0000000000000000e+00 1.3113426678729802e+01
ITEM: ATOMS id type xs ys zs
70 2 0.105261 0.331376 0.0610399
128 2 0.238915 0.475377 0.00285198
40 1 0.26761 0.0766488 0.140085
32 1 0.0809686 0.220597 0.109842
50 1 0.121605 0.436327 0.997974
101 2 0.260375 0.029297 0.0236428
95 2 0.0303563 0.132594 0.0365229
62 2 0.186838 0.168209 0.149548
124 2 0.386403 0.110152 0.155238
55 1 0.493318 0.0586347 0.193462
54 1 0.442649 0.48591 0.303178
21 2 0.337156 0.485893 0.239647
14 2 0.00317886 0.238609 0.203911
68 2 0.16686 0.459086 0.3487
72 2 0.151046 0.392631 0.533542
94 1 0.112359 0.082141 0.461697
36 2 0.234 0.0964719 0.484965
146 2 0.423798 0.430036 0.412636
19 1 0.0830965 0.42651 0.43357
20 1 0.343105 0.049927 0.521362
113 2 0.43708 0.128853 0.536504
79 2 0.0254838 0.119847 0.54498
42 2 0.080047 0.143594 0.359404
127 2 0.22777 0.277566 0.700037
33 1 0.161315 0.374161 0.655653
116 2 0.418878 0.18622 0.72524
112 2 0.0421107 0.379018 0.695942
131 2 0.471913 0.317537 0.585844
56 2 0.223125 0.470817 0.70473
52 1 0.489669 0.199352 0.624072
139 2 0.26974 0.151204 0.85234
117 2 0.373777 0.337804 0.832417
77 1 0.312439 0.0505193 0.912416
110 2 0.0928132 0.405182 0.881252
16 1 0.472338 0.409857 0.8584
9 2 0.431175 0.0794201 0.942629
149 2 0.50181 0.481799 0.762049
140 2 0.439479 0.480189 0.955954
34 1 0.317679 0.239682 0.77827
83 1 0.417114 0.743957 0.0787301
65 1 0.335846 0.546328 0.974063
104 2 0.357373 0.636999 0.0559536
138 2 0.33437 0.828336 0.12172
148 2 0.0460202 0.528059 0.0369077
142 2 0.475738 0.768502 0.971743
96 1 0.231117 0.536024 0.277999
78 1 0.257185 0.861333 0.213485
118 2 0.319585 0.823989 0.32103
125 2 0.458038 0.964789 0.265755
115 2 0.15689 0.574121 0.188395
87 2 0.14291 0.815111 0.220001
121 2 0.498518 0.728181 0.172875
61 2 0.477461 0.60359 0.324045
39 2 0.247272 0.984277 0.22137
92 1 0.019469 0.790922 0.234746
102 2 0.00490086 0.790837 0.35861
58 1 0.426629 0.889099 0.356715
89 1 0.0351621 0.566522 0.15598
137 2 0.511689 0.800401 0.358116
132 2 0.261658 0.6353 0.347553
90 2 0.175822 0.780354 0.455481
80 1 0.282112 0.737975 0.410962
67 1 0.0661376 0.83916 0.455288
41 2 0.366129 0.733431 0.501158
12 2 0.092695 0.96002 0.441526
44 2 0.385054 0.956564 0.450144
24 2 0.00724843 0.82417 0.562127
120 2 0.395393 0.818382 0.687649
75 1 0.388632 0.711998 0.622283
28 2 0.288338 0.6527 0.665317
48 1 0.384156 0.936885 0.723989
49 2 0.49981 0.983817 0.738665
97 1 0.237556 0.583195 0.754308
136 2 0.490449 0.644672 0.645479
133 2 0.325953 0.997233 0.632662
37 2 0.308522 0.586793 0.857204
108 2 0.32192 0.957657 0.82988
15 2 0.123062 0.619298 0.78516
25 1 0.944984 0.0551346 0.989877
109 2 0.636737 0.377303 0.0825811
11 1 0.547406 0.0812032 0.986736
99 2 0.551269 0.0155213 0.0923273
135 2 0.862079 0.0211669 0.0783254
74 2 0.578274 0.195525 0.0212425
63 1 0.636723 0.299872 0.987576
126 2 0.723224 0.49244 0.223168
51 2 0.555928 0.136495 0.263903
88 2 0.681319 0.288878 0.261188
84 1 0.625435 0.20685 0.337741
17 1 0.649953 0.395476 0.203717
122 2 0.537747 0.430731 0.247026
5 2 0.806967 0.00823645 0.27616
93 1 0.993455 0.228642 0.325897
81 2 0.885769 0.174162 0.355385
43 2 0.862836 0.0228718 0.475939
4 2 0.555699 0.277678 0.411808
103 2 0.603539 0.447933 0.502739
129 2 0.698182 0.128282 0.4008
22 1 0.809362 0.0781394 0.378113
7 1 0.508179 0.370688 0.480116
144 2 0.0186545 0.328816 0.392914
2 1 0.703298 0.463605 0.577569
76 2 0.611922 0.182116 0.632994
13 1 0.726464 0.227777 0.651895
23 2 0.71926 0.350312 0.628526
106 2 0.82066 0.178307 0.58638
86 1 0.907812 0.0899512 0.572799
6 2 0.903996 0.015114 0.671235
30 2 0.573542 0.345905 0.890924
111 2 0.911204 0.320028 0.842158
57 1 0.830186 0.228525 0.868895
98 2 0.887091 0.123213 0.902952
123 2 0.619553 0.0406359 0.895135
35 2 0.758496 0.207287 0.769785
85 1 0.992369 0.406984 0.806823
119 2 0.752409 0.269698 0.956211
145 2 0.850603 0.804423 0.000102614
141 2 0.666145 0.736666 0.994597
18 1 0.757738 0.765451 0.0726111
147 2 0.788155 0.668759 0.142896
53 2 0.744153 0.864126 0.148532
105 2 0.662414 0.672493 0.289079
150 2 0.942178 0.879375 0.193143
82 1 0.762803 0.607261 0.247684
47 1 0.543314 0.702724 0.287969
66 2 0.845387 0.599766 0.338378
8 1 0.836305 0.944894 0.173809
46 2 0.997632 0.682473 0.180807
143 2 0.978576 0.482339 0.222916
91 1 0.888259 0.56958 0.45042
29 2 0.887706 0.676642 0.513196
64 2 0.801135 0.501057 0.511035
134 2 0.00264432 0.519172 0.459549
69 2 0.820364 0.833659 0.629929
27 1 0.564828 0.582533 0.724444
130 2 0.668444 0.542387 0.668334
26 1 0.824518 0.928373 0.710102
114 2 0.947672 0.692895 0.704219
45 1 0.91218 0.755341 0.603255
60 2 0.711801 0.977561 0.723949
59 1 0.610675 0.968651 0.793965
38 1 0.580662 0.749943 0.905469
100 2 0.578234 0.654172 0.826088
3 2 0.864718 0.878001 0.816079
107 2 0.603809 0.851782 0.838341
73 1 0.932138 0.839614 0.913999
1 2 0.954206 0.526323 0.815028
31 2 0.989179 0.944232 0.951768
10 2 0.997667 0.737777 0.886165
71 1 0.0023193 0.642522 0.80462
