ITEM: TIMESTEP
2
ITEM: NUMBER OF ATOMS
150
ITEM: BOX BOUNDS pp pp pp
0.0000000000000000e+00 1.3112830585091665e+01
0.0000000000000000e+00 1.3112830585091665e+01
0.0000000000000000e+00 1.3112830585091665e+01
ITEM: ATOMS id type xs ys zs
70 2 0.112686 0.349069 0.0727534
128 2 0.258915 0.482164 0.0072543
40 1 0.270432 0.0910647 0.138405
32 1 0.0907358 0.234928 0.118765
50 1 0.138688 0.448244 0.00111915
101 2 0.260987 0.0497637 0.0212197
95 2 0.0397406 0.151962 0.0438434
62 2 0.197842 0.187105 0.157219
124 2 0.39067 0.119079 0.149686
55 1 0.497955 0.0727584 0.192987
54 1 0.445602 0.513541 0.314608
21 2 0.338937 0.52789 0.25751
14 2 0.014247 0.25037 0.215721
68 2 0.175687 0.471344 0.360172
72 2 0.15894 0.404056 0.546001
94 1 0.110911 0.0990518 0.48185
36 2 0.22986 0.114184 0.514317
146 2 0.436024 0.444765 0.416042
19 1 0.0931088 0.438304 0.445355
20 1 0.343474 0.0666231 0.528492
113 2 0.437169 0.146307 0.55239
79 2 0.0216344 0.136683 0.563265
42 2 0.0904193 0.156955 0.374988
127 2 0.244964 0.297025 0.70889
33 1 0.176102 0.391395 0.66764
116 2 0.42413 0.204645 0.73932
112 2 0.0533676 0.392256 0.705716
131 2 0.46205 0.337148 0.597251
56 2 0.231805 0.490364 0.718363
52 1 0.49108 0.221446 0.63744
139 2 0.284188 0.193779 0.878739
117 2 0.395211 0.367329 0.838395
77 1 0.320379 0.0792863 0.916339
110 2 0.109624 0.412821 0.8875
16 1 0.497767 0.437412 0.860888
9 2 0.441636 0.0900803 0.942896
149 2 0.523151 0.508823 0.762573
140 2 0.46453 0.505485 0.95771
34 1 0.332456 0.269161 0.790936
83 1 0.423672 0.749393 0.0990868
65 1 0.354983 0.55707 0.98054
104 2 0.368983 0.641478 0.0700971
138 2 0.335205 0.826547 0.138455
148 2 0.0653891 0.543053 0.0344454
142 2 0.479909 0.78024 0.990558
96 1 0.227444 0.561122 0.294958
78 1 0.254185 0.86995 0.220004
118 2 0.312351 0.84271 0.332829
125 2 0.460421 0.969463 0.251913
115 2 0.146604 0.588236 0.206368
87 2 0.141031 0.821882 0.21866
121 2 0.505284 0.736805 0.194889
61 2 0.4843 0.626457 0.354184
39 2 0.24676 0.995317 0.217996
92 1 0.0184508 0.797801 0.239402
102 2 0.0145845 0.805207 0.36698
58 1 0.420998 0.912068 0.354105
89 1 0.0319787 0.58127 0.148159
137 2 0.507861 0.827225 0.373721
132 2 0.249092 0.658265 0.373728
90 2 0.175212 0.811335 0.478986
80 1 0.276294 0.763522 0.431473
67 1 0.061765 0.859065 0.471259
41 2 0.365102 0.762784 0.516672
12 2 0.0818255 0.980353 0.460661
44 2 0.380386 0.997259 0.43214
24 2 0.996735 0.835175 0.573396
120 2 0.403566 0.830103 0.716641
75 1 0.392199 0.735277 0.635459
28 2 0.295007 0.671885 0.676357
48 1 0.392079 0.953232 0.729002
49 2 0.506078 0.000158498 0.740345
97 1 0.249309 0.602629 0.766786
136 2 0.49997 0.672237 0.645933
133 2 0.339786 0.98823 0.623515
37 2 0.323716 0.604349 0.866889
108 2 0.319178 0.99725 0.82125
15 2 0.137296 0.641932 0.805223
25 1 0.95636 0.071085 0.00554181
109 2 0.653323 0.403702 0.0896229
11 1 0.555546 0.110782 0.987252
99 2 0.567743 0.0449403 0.0932851
135 2 0.876462 0.0441023 0.100195
74 2 0.583428 0.226096 0.0222344
63 1 0.654425 0.32551 0.993609
126 2 0.71683 0.520298 0.2499
51 2 0.548309 0.152281 0.271704
88 2 0.668764 0.316054 0.271189
84 1 0.619455 0.224742 0.342458
17 1 0.648908 0.425384 0.211896
122 2 0.532236 0.461912 0.243134
5 2 0.817131 0.0211052 0.293615
93 1 0.00344774 0.238987 0.338437
81 2 0.894612 0.190626 0.368417
43 2 0.855197 0.0462874 0.494031
4 2 0.55672 0.286757 0.430418
103 2 0.606435 0.457055 0.525127
129 2 0.702198 0.15145 0.39699
22 1 0.813966 0.100926 0.390393
7 1 0.510178 0.384938 0.493065
144 2 0.0276417 0.341382 0.403643
2 1 0.712623 0.483985 0.586146
76 2 0.614632 0.220163 0.650522
13 1 0.732471 0.258056 0.671322
23 2 0.736563 0.380949 0.652278
106 2 0.824137 0.204289 0.603493
86 1 0.902812 0.106838 0.591789
6 2 0.896066 0.0290557 0.686621
30 2 0.596861 0.370733 0.892581
111 2 0.928311 0.328105 0.852139
57 1 0.842598 0.241331 0.882297
98 2 0.893531 0.131445 0.914534
123 2 0.630463 0.0729663 0.895116
35 2 0.766276 0.230607 0.786206
85 1 0.00761734 0.417738 0.819799
119 2 0.7704 0.286616 0.973361
145 2 0.855911 0.822135 0.0180251
141 2 0.671518 0.755244 0.0077735
18 1 0.762379 0.787788 0.0885349
147 2 0.782847 0.694646 0.166454
53 2 0.745379 0.889364 0.156469
105 2 0.668809 0.699729 0.322933
150 2 0.941089 0.88832 0.206565
82 1 0.76354 0.631887 0.272316
47 1 0.548773 0.72642 0.313892
66 2 0.858288 0.623638 0.352659
8 1 0.841687 0.960239 0.187129
46 2 0.994401 0.69708 0.172306
143 2 0.957463 0.498727 0.196754
91 1 0.896589 0.57427 0.461347
29 2 0.893153 0.668362 0.542506
64 2 0.804958 0.499879 0.503454
134 2 0.011825 0.530184 0.461002
69 2 0.818505 0.833779 0.653828
27 1 0.580272 0.615168 0.725334
130 2 0.682664 0.58001 0.662984
26 1 0.82614 0.935649 0.725868
114 2 0.961401 0.705097 0.723405
45 1 0.911719 0.757724 0.623827
60 2 0.712216 0.985653 0.733811
59 1 0.6115 0.988141 0.80456
38 1 0.582856 0.770308 0.917504
100 2 0.587954 0.68259 0.829425
3 2 0.873093 0.890572 0.832831
107 2 0.601888 0.878686 0.861331
73 1 0.938191 0.850961 0.933063
1 2 0.970416 0.536208 0.826008
31 2 0.997063 0.956989 0.970411
10 2 0.99703 0.743599 0.908192
71 1 0.0133791 0.653202 0.823417
