ITEM: TIMESTEP
2
ITEM: NUMBER OF ATOMS
150
ITEM: BOX BOUNDS pp pp pp
0.0000000000000000e+00 1.3060495827234735e+01
0.0000000000000000e+00 1.3060495827234735e+01
0.0000000000000000e+00 1.3060495827234735e+01
ITEM: ATOMS id type xs ys zs
70 2 0.0912552 0.358123 0.126148
128 2 0.237623 0.490219 0.0663863
40 1 0.247914 0.106065 0.205843
32 1 0.0609092 0.248292 0.176273
50 1 0.117429 0.456742 0.0552537
101 2 0.237772 0.0579314 0.0888465
95 2 0.0136163 0.160012 0.100562
62 2 0.16732 0.197756 0.219309
124 2 0.366935 0.142771 0.220138
55 1 0.472923 0.0982604 0.269562
54 1 0.430354 0.506903 0.37062
21 2 0.321955 0.505255 0.309557
14 2 0.980767 0.265237 0.269153
68 2 0.144663 0.486745 0.41401
72 2 0.139778 0.403369 0.593063
94 1 0.100244 0.101237 0.515473
36 2 0.222738 0.100746 0.541706
146 2 0.41919 0.454927 0.483431
19 1 0.0640812 0.45056 0.503199
20 1 0.335651 0.0661281 0.583148
113 2 0.420918 0.157797 0.590197
79 2 0.0171201 0.130274 0.605552
42 2 0.0707299 0.179068 0.423154
127 2 0.227926 0.290482 0.759994
33 1 0.156082 0.384415 0.71575
116 2 0.412718 0.198467 0.785646
112 2 0.0380407 0.385644 0.757357
131 2 0.460222 0.343123 0.658608
56 2 0.213988 0.48586 0.761243
52 1 0.477952 0.220481 0.682545
139 2 0.277674 0.177891 0.929749
117 2 0.373189 0.358202 0.890954
77 1 0.302884 0.0657441 0.983244
110 2 0.0906097 0.421423 0.939735
16 1 0.465819 0.438753 0.910095
9 2 0.423435 0.0707318 0.0209064
149 2 0.483035 0.511663 0.809787
140 2 0.43363 0.507558 0.0090799
34 1 0.318589 0.257727 0.841568
83 1 0.410339 0.769418 0.134509
65 1 0.327604 0.569336 0.0309544
104 2 0.350356 0.664175 0.107227
138 2 0.328174 0.85243 0.18012
148 2 0.0469075 0.556371 0.0827997
142 2 0.47567 0.801333 0.0325915
96 1 0.214411 0.56042 0.341345
78 1 0.255121 0.887177 0.274337
118 2 0.316674 0.846184 0.380396
125 2 0.448894 0.986224 0.319181
115 2 0.142562 0.596091 0.247545
87 2 0.142061 0.83737 0.276414
121 2 0.492119 0.747289 0.228377
61 2 0.467442 0.624583 0.382883
39 2 0.238237 0.00901919 0.284328
92 1 0.0181392 0.815713 0.287374
102 2 0.00885379 0.801518 0.412453
58 1 0.42598 0.909573 0.41399
89 1 0.0244654 0.596726 0.198704
137 2 0.512724 0.821169 0.412443
132 2 0.246226 0.660396 0.40981
90 2 0.175073 0.816987 0.522191
80 1 0.275051 0.761962 0.472193
67 1 0.0578318 0.862925 0.510339
41 2 0.362757 0.761099 0.56016
12 2 0.0720759 0.983385 0.481978
44 2 0.386972 0.977716 0.509822
24 2 0.990917 0.847224 0.612014
120 2 0.379068 0.838581 0.752723
75 1 0.392107 0.73605 0.679691
28 2 0.303147 0.658534 0.719207
48 1 0.370221 0.956956 0.7946
49 2 0.491628 0.991979 0.814746
97 1 0.234242 0.600714 0.804197
136 2 0.500868 0.684189 0.707796
133 2 0.324401 0.019885 0.697999
37 2 0.290657 0.606111 0.915887
108 2 0.304944 0.978249 0.896769
15 2 0.120405 0.650565 0.817949
25 1 0.93281 0.07851 0.0518673
109 2 0.608335 0.379438 0.139236
11 1 0.541605 0.0985316 0.0513452
99 2 0.553028 0.0838102 0.174783
135 2 0.849814 0.0426554 0.139803
74 2 0.562429 0.217723 0.0272497
63 1 0.62505 0.325071 0.0306029
126 2 0.70815 0.496671 0.276169
51 2 0.513091 0.175055 0.357163
88 2 0.661373 0.301993 0.32252
84 1 0.606927 0.234124 0.413043
17 1 0.62859 0.403858 0.257651
122 2 0.519489 0.443553 0.309773
5 2 0.798314 0.0263088 0.341948
93 1 0.974692 0.256874 0.391882
81 2 0.872413 0.194938 0.425545
43 2 0.844785 0.0419129 0.542552
4 2 0.566467 0.316037 0.49813
103 2 0.58916 0.490798 0.587302
129 2 0.682602 0.147817 0.460108
22 1 0.794692 0.0988426 0.443139
7 1 0.502848 0.40679 0.560965
144 2 0.993007 0.358184 0.459949
2 1 0.693791 0.489836 0.653913
76 2 0.601031 0.202042 0.69266
13 1 0.716176 0.247511 0.715822
23 2 0.706395 0.371446 0.694335
106 2 0.813449 0.199738 0.652743
86 1 0.898079 0.109526 0.635668
6 2 0.893752 0.0377379 0.739426
30 2 0.577603 0.388733 0.934312
111 2 0.905127 0.342187 0.903958
57 1 0.823254 0.250291 0.931018
98 2 0.875506 0.143402 0.964031
123 2 0.61249 0.0294926 0.977852
35 2 0.745719 0.232258 0.8356
85 1 0.990875 0.424595 0.865897
119 2 0.747812 0.29835 0.0202354
145 2 0.859351 0.816038 0.0660936
141 2 0.668144 0.756617 0.0610626
18 1 0.765512 0.775022 0.13702
147 2 0.787033 0.672646 0.201937
53 2 0.7474 0.874702 0.212309
105 2 0.65378 0.679207 0.340855
150 2 0.94198 0.909501 0.257012
82 1 0.754707 0.608721 0.303353
47 1 0.537142 0.719218 0.343765
66 2 0.830235 0.600684 0.402005
8 1 0.830869 0.966025 0.237564
46 2 0.992909 0.715563 0.219156
143 2 0.959442 0.512679 0.257907
91 1 0.873408 0.58796 0.518317
29 2 0.861603 0.703332 0.568663
64 2 0.791696 0.518309 0.583791
134 2 0.988298 0.543766 0.534127
69 2 0.807176 0.860388 0.69615
27 1 0.558652 0.610013 0.788648
130 2 0.668253 0.568222 0.747804
26 1 0.810581 0.951992 0.780146
114 2 0.936599 0.714488 0.75421
45 1 0.895891 0.782386 0.657993
60 2 0.700083 0.00568405 0.79455
59 1 0.60494 0.975049 0.867145
38 1 0.581355 0.766531 0.972624
100 2 0.565892 0.663251 0.902984
3 2 0.854458 0.901059 0.88459
107 2 0.611481 0.853845 0.890752
73 1 0.930859 0.858908 0.973928
1 2 0.958386 0.547345 0.865755
31 2 0.983851 0.967915 0.0144413
10 2 0.995077 0.758984 0.934748
71 1 0.000393202 0.666338 0.850436
