ITEM: TIMESTEP
2
ITEM: NUMBER OF ATOMS
150
ITEM: BOX BOUNDS pp pp pp
0.0000000000000000e+00 1.3130711108409258e+01
0.0000000000000000e+00 1.3130711108409258e+01
0.0000000000000000e+00 1.3130711108409258e+01
ITEM: ATOMS id type xs ys zs
70 2 0.0689297 0.263345 0.0741946
128 2 0.212898 0.405015 0.0344177
40 1 0.236608 0.0156149 0.153471
32 1 0.0463575 0.154045 0.126243
50 1 0.0948014 0.371381 0.0210456
101 2 0.227364 0.970442 0.0366271
95 2 0.998704 0.0658874 0.0554544
62 2 0.15705 0.108696 0.165392
124 2 0.354915 0.049977 0.168705
55 1 0.461391 8.82005e-05 0.208505
54 1 0.415612 0.417149 0.319493
21 2 0.305735 0.417373 0.262721
14 2 0.968974 0.174032 0.220572
68 2 0.138656 0.395669 0.373315
72 2 0.109941 0.320954 0.553675
94 1 0.087825 0.0228412 0.475131
36 2 0.208909 0.0356161 0.497481
146 2 0.401595 0.364017 0.431927
19 1 0.0498139 0.363197 0.452169
20 1 0.318585 0.991547 0.534303
113 2 0.41028 0.0751207 0.546888
79 2 0.00169263 0.0492804 0.560973
42 2 0.0543131 0.0853783 0.37457
127 2 0.202985 0.211065 0.713293
33 1 0.130274 0.307021 0.675053
116 2 0.390022 0.126169 0.734099
112 2 0.0144609 0.309786 0.722118
131 2 0.453136 0.261775 0.607398
56 2 0.189761 0.405235 0.722084
52 1 0.466294 0.140757 0.637127
139 2 0.257622 0.0972634 0.878146
117 2 0.34849 0.279934 0.845146
77 1 0.286178 0.986931 0.929034
110 2 0.0696884 0.350575 0.901329
16 1 0.443463 0.354908 0.868646
9 2 0.406148 0.994201 0.963016
149 2 0.464236 0.437209 0.777146
140 2 0.4123 0.417948 0.97188
34 1 0.294449 0.181565 0.794338
83 1 0.386666 0.675972 0.0946486
65 1 0.305157 0.476585 0.995214
104 2 0.324958 0.572143 0.0695152
138 2 0.302569 0.758008 0.140544
148 2 0.0202035 0.464282 0.0564049
142 2 0.445758 0.703785 0.989328
96 1 0.201095 0.472224 0.300735
78 1 0.226505 0.798285 0.230146
118 2 0.291026 0.762796 0.339277
125 2 0.433333 0.894896 0.269041
115 2 0.127694 0.514177 0.211631
87 2 0.114157 0.748933 0.231018
121 2 0.467479 0.661372 0.189856
61 2 0.45094 0.536589 0.338613
39 2 0.219055 0.920226 0.229114
92 1 0.990894 0.73167 0.246452
102 2 0.979132 0.741942 0.371071
58 1 0.402072 0.826217 0.366759
89 1 0.00849759 0.506984 0.172524
137 2 0.481996 0.734333 0.374115
132 2 0.236665 0.570845 0.370769
90 2 0.148483 0.720379 0.473163
80 1 0.253746 0.67682 0.430399
67 1 0.0423552 0.781184 0.471202
41 2 0.336589 0.676572 0.521953
12 2 0.072807 0.900284 0.449909
44 2 0.363247 0.902808 0.456027
24 2 0.978772 0.772861 0.575238
120 2 0.369038 0.760268 0.705977
75 1 0.36775 0.653067 0.640991
28 2 0.281377 0.581967 0.691603
48 1 0.353787 0.879727 0.738547
49 2 0.470081 0.92295 0.755321
97 1 0.210945 0.517561 0.768441
136 2 0.477619 0.597332 0.654389
133 2 0.301608 0.937284 0.643484
37 2 0.26728 0.514138 0.880212
108 2 0.287882 0.899352 0.841423
15 2 0.0983982 0.568191 0.783435
25 1 0.914405 0.993876 0.00305814
109 2 0.610222 0.312515 0.0930446
11 1 0.51931 0.0265603 0.000892724
99 2 0.533908 0.973561 0.111559
135 2 0.830835 0.96175 0.0915144
74 2 0.529107 0.147668 0.017352
63 1 0.604474 0.242382 0.991779
126 2 0.690079 0.423286 0.242463
51 2 0.509638 0.0793637 0.289117
88 2 0.648326 0.218622 0.271022
84 1 0.592327 0.143223 0.355532
17 1 0.616283 0.327576 0.215626
122 2 0.505912 0.359521 0.260066
5 2 0.782603 0.944697 0.289248
93 1 0.965567 0.167113 0.343274
81 2 0.858835 0.111836 0.375719
43 2 0.837682 0.958395 0.487575
4 2 0.544533 0.220624 0.438887
103 2 0.575568 0.40024 0.524718
129 2 0.668876 0.0607534 0.406307
22 1 0.782071 0.0140923 0.390873
7 1 0.49019 0.313127 0.501219
144 2 0.984988 0.270143 0.405926
2 1 0.678057 0.406913 0.59802
76 2 0.58746 0.122886 0.653851
13 1 0.70366 0.167866 0.664116
23 2 0.69617 0.289637 0.636581
106 2 0.797778 0.115263 0.59864
86 1 0.882997 0.0230882 0.585914
6 2 0.868734 0.951612 0.686168
30 2 0.551442 0.295554 0.89114
111 2 0.884948 0.265415 0.868619
57 1 0.803642 0.171081 0.886854
98 2 0.857754 0.0640148 0.918204
123 2 0.592386 0.991188 0.908015
35 2 0.740472 0.154642 0.78144
85 1 0.967176 0.350081 0.829395
119 2 0.718797 0.203426 0.969875
145 2 0.83249 0.734129 0.0158069
141 2 0.638333 0.680544 0.01858
18 1 0.74033 0.696002 0.0880422
147 2 0.761533 0.594551 0.1547
53 2 0.724616 0.796749 0.161877
105 2 0.635235 0.607516 0.300879
150 2 0.918162 0.820033 0.199831
82 1 0.734674 0.537608 0.261743
47 1 0.516144 0.639022 0.305229
66 2 0.815925 0.531815 0.35363
8 1 0.811211 0.883399 0.186573
46 2 0.966478 0.621643 0.196029
143 2 0.953019 0.421236 0.237902
91 1 0.861745 0.509281 0.465705
29 2 0.863367 0.620714 0.522149
64 2 0.775835 0.441097 0.528816
134 2 0.975778 0.460178 0.476706
69 2 0.790185 0.772007 0.647363
27 1 0.540059 0.530918 0.739198
130 2 0.642118 0.481832 0.689752
26 1 0.789707 0.865947 0.72893
114 2 0.92266 0.633809 0.708428
45 1 0.885017 0.701558 0.61205
60 2 0.678224 0.917932 0.740846
59 1 0.57908 0.910268 0.814157
38 1 0.553116 0.692856 0.92823
100 2 0.553909 0.601029 0.842797
3 2 0.829794 0.815869 0.83456
107 2 0.576863 0.797269 0.865908
73 1 0.904954 0.776019 0.925518
1 2 0.931748 0.468379 0.824536
31 2 0.959125 0.884995 0.95947
10 2 0.968553 0.673475 0.892328
71 1 0.976774 0.582203 0.807241
