ITEM: TIMESTEP
2
ITEM: NUMBER OF ATOMS
150
ITEM: BOX BOUNDS pp pp pp
0.0000000000000000e+00 1.3057510259676203e+01
0.0000000000000000e+00 1.3057510259676203e+01
0.0000000000000000e+00 1.3057510259676203e+01
ITEM: ATOMS id type xs ys zs
70 2 0.0969668 0.360591 0.13955
128 2 0.24221 0.49255 0.0746267
40 1 0.255624 0.111595 0.216749
32 1 0.0673888 0.252163 0.191099
50 1 0.124022 0.455768 0.0658802
101 2 0.24677 0.0625138 0.101286
95 2 0.019705 0.163803 0.115536
62 2 0.175015 0.202783 0.231146
124 2 0.372903 0.14951 0.235187
55 1 0.479621 0.104191 0.280624
54 1 0.438445 0.508193 0.381553
21 2 0.330035 0.509324 0.321391
14 2 0.986979 0.268733 0.283617
68 2 0.150383 0.493868 0.422571
72 2 0.152948 0.413724 0.603655
94 1 0.105725 0.0994739 0.526396
36 2 0.227145 0.0966682 0.557532
146 2 0.428545 0.456627 0.494794
19 1 0.0748514 0.455386 0.513606
20 1 0.343089 0.0680348 0.595065
113 2 0.428571 0.15865 0.604296
79 2 0.0224797 0.129974 0.617052
42 2 0.0781268 0.179089 0.435105
127 2 0.237908 0.294515 0.766336
33 1 0.166289 0.39053 0.725617
116 2 0.422064 0.202433 0.798554
112 2 0.0457434 0.391361 0.7633
131 2 0.467405 0.347388 0.672053
56 2 0.221692 0.488854 0.78113
52 1 0.485327 0.224651 0.693484
139 2 0.279993 0.180269 0.937466
117 2 0.381831 0.356924 0.906851
77 1 0.310429 0.0730737 0.994865
110 2 0.0943907 0.419425 0.950483
16 1 0.472046 0.442329 0.921538
9 2 0.430426 0.0786442 0.0330073
149 2 0.486816 0.515689 0.820826
140 2 0.435797 0.509482 0.0202468
34 1 0.32369 0.260058 0.852112
83 1 0.416874 0.770602 0.147019
65 1 0.331121 0.572717 0.0423288
104 2 0.353676 0.666051 0.121172
138 2 0.336652 0.8554 0.19393
148 2 0.0524263 0.555788 0.0912548
142 2 0.481273 0.800392 0.04354
96 1 0.221809 0.563893 0.349588
78 1 0.262709 0.891958 0.287022
118 2 0.32534 0.85164 0.393317
125 2 0.458028 0.992614 0.332684
115 2 0.152421 0.599767 0.25416
87 2 0.149476 0.843371 0.286674
121 2 0.496565 0.747948 0.242193
61 2 0.473853 0.627144 0.398409
39 2 0.245403 0.0142688 0.295277
92 1 0.0261 0.820087 0.296384
102 2 0.0140884 0.803081 0.420564
58 1 0.435919 0.914253 0.426389
89 1 0.0342672 0.601526 0.207045
137 2 0.521364 0.825075 0.425183
132 2 0.254994 0.665954 0.416991
90 2 0.180679 0.817819 0.530684
80 1 0.28308 0.766617 0.4828
67 1 0.0638223 0.862232 0.51909
41 2 0.370878 0.762332 0.570872
12 2 0.0760666 0.983119 0.490167
44 2 0.396166 0.979944 0.523213
24 2 0.996571 0.84647 0.621517
120 2 0.383611 0.840993 0.765164
75 1 0.39767 0.74023 0.691903
28 2 0.307869 0.661 0.727632
48 1 0.378953 0.958987 0.805989
49 2 0.497663 0.993575 0.828725
97 1 0.241252 0.606702 0.817243
136 2 0.509052 0.691048 0.721514
133 2 0.33212 0.0222348 0.710093
37 2 0.299156 0.615734 0.92797
108 2 0.310072 0.984434 0.907047
15 2 0.127495 0.656174 0.832147
25 1 0.940041 0.0825005 0.064093
109 2 0.610103 0.379489 0.151668
11 1 0.550142 0.100952 0.0625742
99 2 0.559353 0.0890581 0.186334
135 2 0.856636 0.0465096 0.152672
74 2 0.580068 0.217743 0.0346731
63 1 0.635548 0.3294 0.0414031
126 2 0.715401 0.501353 0.279087
51 2 0.521747 0.181579 0.366848
88 2 0.671267 0.3079 0.335946
84 1 0.615036 0.239884 0.424643
17 1 0.635732 0.407704 0.269313
122 2 0.529273 0.447626 0.322693
5 2 0.808443 0.0309303 0.355825
93 1 0.984616 0.259464 0.406681
81 2 0.880169 0.202083 0.441672
43 2 0.852445 0.0460663 0.555659
4 2 0.571904 0.316879 0.511835
103 2 0.597306 0.49382 0.601647
129 2 0.69076 0.153241 0.471256
22 1 0.803867 0.104186 0.456261
7 1 0.511487 0.408636 0.573064
144 2 0.00454567 0.360653 0.474451
2 1 0.702531 0.48988 0.671039
76 2 0.606838 0.201303 0.701784
13 1 0.719319 0.247865 0.728874
23 2 0.709072 0.371456 0.709998
106 2 0.818627 0.201703 0.667939
86 1 0.903791 0.110491 0.651501
6 2 0.897965 0.0385642 0.752586
30 2 0.585338 0.39808 0.950396
111 2 0.909521 0.343034 0.905907
57 1 0.827066 0.255186 0.940667
98 2 0.883808 0.149048 0.974147
123 2 0.61775 0.0251677 0.991759
35 2 0.744655 0.231586 0.849799
85 1 0.995851 0.426556 0.872517
119 2 0.757546 0.306455 0.0307681
145 2 0.864445 0.820141 0.0791644
141 2 0.673345 0.755105 0.0778472
18 1 0.771718 0.778976 0.151819
147 2 0.798561 0.6797 0.220896
53 2 0.754417 0.879239 0.226755
105 2 0.659085 0.679987 0.353769
150 2 0.949156 0.913736 0.267721
82 1 0.760178 0.610711 0.317383
47 1 0.543442 0.722427 0.356938
66 2 0.830328 0.595096 0.417731
8 1 0.837371 0.97061 0.250951
46 2 0.00476565 0.721891 0.223949
143 2 0.965864 0.523006 0.270356
91 1 0.876862 0.587854 0.532007
29 2 0.864552 0.703061 0.57906
64 2 0.800545 0.516158 0.60079
134 2 0.995268 0.547256 0.545915
69 2 0.811797 0.861039 0.70689
27 1 0.565104 0.612754 0.80209
130 2 0.676092 0.57 0.763317
26 1 0.817649 0.952101 0.791879
114 2 0.940152 0.71645 0.764646
45 1 0.898779 0.782126 0.667077
60 2 0.706408 0.00494174 0.806701
59 1 0.610428 0.974084 0.87802
38 1 0.588772 0.765783 0.986799
100 2 0.573383 0.664326 0.916037
3 2 0.860039 0.900203 0.896506
107 2 0.62108 0.851979 0.902492
73 1 0.937858 0.862907 0.988176
1 2 0.966225 0.549055 0.871494
31 2 0.988692 0.973128 0.0240579
10 2 0.999771 0.761931 0.94623
71 1 0.005775 0.669324 0.860119
