ITEM: TIMESTEP
2
ITEM: NUMBER OF ATOMS
150
ITEM: BOX BOUNDS pp pp pp
0.0000000000000000e+00 1.3056627028880140e+01
0.0000000000000000e+00 1.3056627028880140e+01
0.0000000000000000e+00 1.3056627028880140e+01
ITEM: ATOMS id type xs ys zs
70 2 0.0828735 0.341153 0.088636
128 2 0.219037 0.471644 0.0193298
40 1 0.249537 0.0802652 0.157149
32 1 0.0600475 0.228512 0.134163
50 1 0.100153 0.43683 0.0121263
101 2 0.247193 0.0299542 0.0417498
95 2 0.00730097 0.148379 0.053703
62 2 0.168991 0.173398 0.164712
124 2 0.369989 0.107038 0.178155
55 1 0.473899 0.0453657 0.212712
54 1 0.413591 0.479628 0.320468
21 2 0.305131 0.477888 0.259898
14 2 0.984415 0.239952 0.232358
68 2 0.134957 0.436079 0.367816
72 2 0.127514 0.384696 0.559085
94 1 0.0951589 0.0782575 0.47547
36 2 0.211563 0.0743493 0.517349
146 2 0.400018 0.425004 0.43218
19 1 0.055785 0.417541 0.462173
20 1 0.321364 0.0286642 0.551096
113 2 0.412414 0.114277 0.556128
79 2 0.00326285 0.0939617 0.559528
42 2 0.0823818 0.167144 0.390082
127 2 0.203744 0.269864 0.724536
33 1 0.139055 0.368386 0.682241
116 2 0.397482 0.185641 0.738065
112 2 0.0179944 0.378431 0.715159
131 2 0.458857 0.313136 0.601233
56 2 0.196983 0.467596 0.734281
52 1 0.470043 0.192266 0.63657
139 2 0.254391 0.132863 0.867891
117 2 0.343236 0.322166 0.86472
77 1 0.303973 0.0378118 0.930868
110 2 0.0594053 0.399569 0.900039
16 1 0.449863 0.383825 0.886892
9 2 0.42239 0.0734453 0.954982
149 2 0.48393 0.456201 0.790476
140 2 0.42328 0.453965 0.987231
34 1 0.295438 0.227395 0.798604
83 1 0.404253 0.731392 0.098086
65 1 0.325766 0.530546 0.997087
104 2 0.349761 0.620165 0.0804692
138 2 0.316635 0.811765 0.14064
148 2 0.0314895 0.538598 0.0372449
142 2 0.460529 0.752159 0.987777
96 1 0.19365 0.519477 0.297565
78 1 0.238388 0.855968 0.227309
118 2 0.295466 0.810154 0.337182
125 2 0.436128 0.957735 0.29416
115 2 0.110091 0.558557 0.215311
87 2 0.12105 0.818078 0.224069
121 2 0.488598 0.723292 0.191733
61 2 0.447682 0.598311 0.339396
39 2 0.230485 0.980114 0.232277
92 1 0.995015 0.802881 0.232327
102 2 0.977873 0.804516 0.357521
58 1 0.401182 0.875447 0.379208
89 1 0.999521 0.573032 0.15403
137 2 0.491152 0.791862 0.382426
132 2 0.225329 0.619699 0.367149
90 2 0.14715 0.77498 0.466824
80 1 0.252481 0.723103 0.427644
67 1 0.0449272 0.846084 0.454663
41 2 0.337203 0.710792 0.517709
12 2 0.0771857 0.963121 0.427137
44 2 0.355343 0.9315 0.478648
24 2 0.986706 0.845305 0.563964
120 2 0.387408 0.8035 0.702005
75 1 0.369358 0.696785 0.638646
28 2 0.26867 0.647846 0.69409
48 1 0.371439 0.91772 0.748588
49 2 0.483016 0.974511 0.752794
97 1 0.225476 0.57738 0.786417
136 2 0.467373 0.622867 0.66265
133 2 0.305294 0.979837 0.664279
37 2 0.310289 0.571546 0.878135
108 2 0.316781 0.934949 0.859655
15 2 0.123574 0.626168 0.838723
25 1 0.923473 0.0701676 0.00371175
109 2 0.611999 0.364575 0.101578
11 1 0.536054 0.0604055 0.00626539
99 2 0.516369 0.989297 0.108389
135 2 0.833951 0.0418371 0.088235
74 2 0.578122 0.167308 0.0534717
63 1 0.618511 0.27851 0.0137014
126 2 0.692622 0.492675 0.238673
51 2 0.54749 0.124419 0.272902
88 2 0.66179 0.290677 0.283826
84 1 0.605077 0.202087 0.351314
17 1 0.623842 0.392204 0.221334
122 2 0.508912 0.421386 0.265218
5 2 0.781125 0.00631422 0.289633
93 1 0.977399 0.228912 0.355109
81 2 0.883767 0.151077 0.379161
43 2 0.831153 0.00529771 0.4969
4 2 0.527365 0.26536 0.425611
103 2 0.58783 0.440669 0.507365
129 2 0.686276 0.133837 0.416617
22 1 0.791142 0.0694934 0.396658
7 1 0.489579 0.364669 0.49264
144 2 0.974827 0.328052 0.429118
2 1 0.68526 0.451987 0.586844
76 2 0.593254 0.175711 0.649309
13 1 0.710998 0.217494 0.666376
23 2 0.708507 0.3364 0.62823
106 2 0.808737 0.159497 0.614114
86 1 0.88691 0.0637897 0.594901
6 2 0.883285 0.993773 0.697778
30 2 0.542412 0.306595 0.91755
111 2 0.869358 0.34636 0.84659
57 1 0.809638 0.241934 0.88148
98 2 0.873105 0.138121 0.911181
123 2 0.605897 0.0158753 0.912845
35 2 0.733938 0.210318 0.788155
85 1 0.964157 0.421795 0.81953
119 2 0.736634 0.270318 0.977591
145 2 0.850506 0.789048 0.0268283
141 2 0.657916 0.733954 0.0035518
18 1 0.744536 0.76502 0.0879793
147 2 0.759025 0.680728 0.177342
53 2 0.725249 0.876509 0.143276
105 2 0.637574 0.659433 0.326005
150 2 0.923826 0.898013 0.192475
82 1 0.737893 0.602963 0.272578
47 1 0.521297 0.694798 0.310592
66 2 0.824113 0.593688 0.360429
8 1 0.812922 0.958289 0.179318
46 2 0.975611 0.694494 0.174446
143 2 0.914963 0.492525 0.189402
91 1 0.869724 0.567578 0.472405
29 2 0.87844 0.674183 0.535761
64 2 0.787409 0.493295 0.530178
134 2 0.985566 0.520382 0.474301
69 2 0.821519 0.807614 0.674388
27 1 0.539681 0.559206 0.743853
130 2 0.642299 0.522913 0.681407
26 1 0.799433 0.911639 0.738451
114 2 0.997545 0.693643 0.693476
45 1 0.919811 0.755473 0.618348
60 2 0.685424 0.957878 0.72641
59 1 0.592088 0.949812 0.807081
38 1 0.564415 0.732639 0.919282
100 2 0.556087 0.631901 0.84567
3 2 0.816862 0.89065 0.859726
107 2 0.580399 0.830462 0.843582
73 1 0.908653 0.849986 0.935482
1 2 0.944844 0.546126 0.817749
31 2 0.966771 0.954776 0.972258
10 2 0.968501 0.761798 0.871161
71 1 0.00584672 0.657306 0.813166
