ITEM: TIMESTEP
2
ITEM: NUMBER OF ATOMS
150
ITEM: BOX BOUNDS pp pp pp
0.0000000000000000e+00 1.3059765549240559e+01
0.0000000000000000e+00 1.3059765549240559e+01
0.0000000000000000e+00 1.3059765549240559e+01
ITEM: ATOMS id type xs ys zs
70 2 0.0932313 0.337169 0.111165
128 2 0.253684 0.456611 0.0664389
40 1 0.268056 0.0837693 0.178361
32 1 0.0772587 0.219038 0.144915
50 1 0.13239 0.436926 0.0493999
101 2 0.261896 0.0378809 0.0614161
95 2 0.0325649 0.139875 0.0593082
62 2 0.188004 0.17698 0.184921
124 2 0.386907 0.114634 0.199422
55 1 0.494653 0.0626846 0.236308
54 1 0.438914 0.473203 0.343109
21 2 0.32923 0.483549 0.285963
14 2 0.995341 0.214152 0.236808
68 2 0.187281 0.482272 0.432729
72 2 0.137661 0.355237 0.575562
94 1 0.117563 0.0789471 0.496973
36 2 0.239944 0.0921142 0.517865
146 2 0.42531 0.41637 0.453537
19 1 0.0896838 0.419988 0.478969
20 1 0.351569 0.0556178 0.558535
113 2 0.436981 0.143269 0.577108
79 2 0.0323999 0.108053 0.586525
42 2 0.0832065 0.145068 0.398292
127 2 0.230036 0.283379 0.750042
33 1 0.161078 0.372285 0.696512
116 2 0.418837 0.196121 0.769677
112 2 0.0468507 0.390032 0.746864
131 2 0.47737 0.326487 0.637673
56 2 0.223856 0.477498 0.725367
52 1 0.493252 0.205162 0.669369
139 2 0.27688 0.170534 0.908294
117 2 0.381717 0.352817 0.877838
77 1 0.320166 0.0637929 0.956112
110 2 0.109228 0.411851 0.930229
16 1 0.48481 0.421272 0.901883
9 2 0.438947 0.0893549 0.988546
149 2 0.510436 0.503153 0.810863
140 2 0.452087 0.48495 0.00431484
34 1 0.322927 0.25391 0.827667
83 1 0.414286 0.735336 0.12678
65 1 0.339239 0.53564 0.0234123
104 2 0.346608 0.633308 0.100817
138 2 0.337057 0.820892 0.177964
148 2 0.0678115 0.541993 0.0720534
142 2 0.474392 0.75908 0.0190572
96 1 0.225747 0.53828 0.328149
78 1 0.256351 0.865709 0.261642
118 2 0.314167 0.841387 0.375202
125 2 0.464262 0.960129 0.298585
115 2 0.124988 0.545783 0.256167
87 2 0.145059 0.812475 0.260517
121 2 0.498919 0.7168 0.218336
61 2 0.486123 0.58733 0.365917
39 2 0.244344 0.988852 0.254858
92 1 0.019938 0.795945 0.27137
102 2 0.000788458 0.797699 0.395681
58 1 0.43225 0.89232 0.39696
89 1 0.0207831 0.569987 0.185956
137 2 0.504304 0.792186 0.40275
132 2 0.267495 0.650843 0.368274
90 2 0.168167 0.772951 0.495869
80 1 0.27903 0.741798 0.451576
67 1 0.0630291 0.841236 0.494798
41 2 0.359034 0.738269 0.546658
12 2 0.0988545 0.958515 0.471188
44 2 0.409042 0.969834 0.489545
24 2 0.00426728 0.824639 0.602753
120 2 0.409827 0.832862 0.727515
75 1 0.400313 0.723951 0.664968
28 2 0.312844 0.655881 0.722891
48 1 0.394261 0.951945 0.763153
49 2 0.507344 0.00528854 0.773589
97 1 0.246118 0.579632 0.795248
136 2 0.508198 0.66233 0.679176
133 2 0.330954 0.0025741 0.669533
37 2 0.302565 0.566125 0.907129
108 2 0.333256 0.975789 0.869618
15 2 0.132549 0.623474 0.822567
25 1 0.949255 0.057568 0.018714
109 2 0.652273 0.393272 0.123233
11 1 0.555752 0.100259 0.0293914
99 2 0.560906 0.0334078 0.134591
135 2 0.86936 0.0281905 0.111664
74 2 0.577892 0.217375 0.0624928
63 1 0.650462 0.313433 0.0277545
126 2 0.712497 0.49039 0.296913
51 2 0.548862 0.141531 0.313982
88 2 0.680546 0.28773 0.300829
84 1 0.626803 0.209324 0.382678
17 1 0.646854 0.396362 0.247861
122 2 0.525434 0.410634 0.279291
5 2 0.824781 0.0239525 0.315961
93 1 0.000922098 0.230091 0.358892
81 2 0.892084 0.194838 0.409071
43 2 0.871235 0.0250363 0.512253
4 2 0.572933 0.279284 0.470211
103 2 0.59704 0.462966 0.547512
129 2 0.704285 0.130087 0.43903
22 1 0.82042 0.092034 0.419985
7 1 0.513534 0.372815 0.528539
144 2 0.0465348 0.338307 0.39569
2 1 0.702364 0.469658 0.615457
76 2 0.615754 0.182006 0.680301
13 1 0.731753 0.231132 0.689297
23 2 0.71697 0.351319 0.655646
106 2 0.82726 0.174021 0.629693
86 1 0.913854 0.0830244 0.615823
6 2 0.903488 0.00415203 0.711063
30 2 0.590121 0.357903 0.927533
111 2 0.925572 0.325728 0.898317
57 1 0.840392 0.233976 0.911382
98 2 0.889037 0.119346 0.928992
123 2 0.627721 0.0692648 0.934198
35 2 0.770801 0.231542 0.807855
85 1 0.00355121 0.414636 0.861667
119 2 0.762936 0.264937 0.00332892
145 2 0.867732 0.799236 0.0489406
141 2 0.671979 0.756308 0.0383584
18 1 0.767269 0.771112 0.118082
147 2 0.78286 0.67006 0.189104
53 2 0.757329 0.876342 0.187517
105 2 0.665013 0.67518 0.338845
150 2 0.954664 0.893785 0.231388
82 1 0.76393 0.605554 0.295481
47 1 0.54317 0.694324 0.334986
66 2 0.858039 0.612455 0.376651
8 1 0.848324 0.959291 0.213436
46 2 0.999137 0.690987 0.209015
143 2 0.928356 0.495034 0.209215
91 1 0.888394 0.569352 0.489573
29 2 0.887163 0.670488 0.562843
64 2 0.795908 0.500279 0.539516
134 2 0.996189 0.502873 0.497072
69 2 0.81709 0.825328 0.682123
27 1 0.576397 0.60053 0.764956
130 2 0.67729 0.549396 0.709749
26 1 0.824165 0.922635 0.760185
114 2 0.955585 0.693199 0.750514
45 1 0.913348 0.75328 0.650058
60 2 0.71452 0.978988 0.773527
59 1 0.611388 0.989429 0.840724
38 1 0.581308 0.766784 0.953764
100 2 0.590105 0.681019 0.861733
3 2 0.87068 0.874415 0.865587
107 2 0.589534 0.879624 0.899472
73 1 0.945265 0.839109 0.961363
1 2 0.963014 0.532458 0.869426
31 2 0.000231725 0.947869 0.990474
10 2 0.012682 0.73991 0.932727
71 1 0.0130449 0.6458 0.850646
