ITEM: TIMESTEP
2
ITEM: NUMBER OF ATOMS
150
ITEM: BOX BOUNDS pp pp pp
0.0000000000000000e+00 1.3063746859825255e+01
0.0000000000000000e+00 1.3063746859825255e+01
0.0000000000000000e+00 1.3063746859825255e+01
ITEM: ATOMS id type xs ys zs
70 2 0.0736431 0.34123 0.0788629
128 2 0.209917 0.472517 0.0100118
40 1 0.240387 0.0793768 0.148867
32 1 0.0512245 0.229597 0.127461
50 1 0.0901303 0.439239 0.00474716
101 2 0.238144 0.0275941 0.0341194
95 2 0.999005 0.146833 0.0493959
62 2 0.158065 0.170711 0.158715
124 2 0.359958 0.109704 0.170845
55 1 0.463496 0.0467421 0.2043
54 1 0.404563 0.480013 0.311752
21 2 0.295638 0.475889 0.252484
14 2 0.975106 0.244977 0.22405
68 2 0.126064 0.436131 0.355398
72 2 0.118968 0.387549 0.549232
94 1 0.0852233 0.0773582 0.467613
36 2 0.202813 0.0770682 0.507286
146 2 0.392388 0.427941 0.42451
19 1 0.0484089 0.420071 0.451217
20 1 0.312503 0.0332716 0.544787
113 2 0.407666 0.112983 0.548902
79 2 0.993841 0.0960456 0.552309
42 2 0.0693776 0.163901 0.380311
127 2 0.195123 0.273339 0.711188
33 1 0.128047 0.37249 0.672827
116 2 0.385783 0.184831 0.728822
112 2 0.0068875 0.38201 0.70621
131 2 0.444255 0.312691 0.591973
56 2 0.187443 0.468717 0.7281
52 1 0.460133 0.193115 0.628689
139 2 0.242672 0.136431 0.86014
117 2 0.333785 0.322161 0.855824
77 1 0.292168 0.0408154 0.922947
110 2 0.0532405 0.40146 0.891831
16 1 0.439099 0.385868 0.877666
9 2 0.41039 0.074269 0.950547
149 2 0.474313 0.458178 0.782235
140 2 0.41479 0.459175 0.976368
34 1 0.283886 0.229285 0.787867
83 1 0.395551 0.733768 0.0900214
65 1 0.315664 0.533675 0.988516
104 2 0.337224 0.624544 0.070649
138 2 0.309054 0.816094 0.130347
148 2 0.0177376 0.538609 0.0303438
142 2 0.453697 0.757316 0.982108
96 1 0.184926 0.521119 0.287491
78 1 0.230003 0.857008 0.217472
118 2 0.286124 0.814058 0.328487
125 2 0.425527 0.957026 0.282097
115 2 0.105005 0.560494 0.20188
87 2 0.112927 0.816906 0.217592
121 2 0.47772 0.723438 0.18479
61 2 0.434375 0.600055 0.329145
39 2 0.221044 0.980629 0.224115
92 1 0.98703 0.802912 0.226836
102 2 0.97062 0.798135 0.350884
58 1 0.391246 0.879532 0.371601
89 1 0.990607 0.57467 0.148056
137 2 0.476954 0.7912 0.376521
132 2 0.212908 0.621737 0.359884
90 2 0.141799 0.781825 0.459191
80 1 0.244661 0.726247 0.418014
67 1 0.0353253 0.845465 0.445595
41 2 0.327974 0.719468 0.510557
12 2 0.0642189 0.963548 0.41904
44 2 0.351308 0.940222 0.470436
24 2 0.971596 0.842651 0.550987
120 2 0.377244 0.806763 0.694386
75 1 0.359671 0.699658 0.631122
28 2 0.258326 0.648916 0.683981
48 1 0.358626 0.921273 0.740024
49 2 0.470854 0.977011 0.745782
97 1 0.21738 0.578972 0.777877
136 2 0.454394 0.62195 0.657813
133 2 0.291622 0.984685 0.657164
37 2 0.301436 0.576677 0.870188
108 2 0.303876 0.939276 0.850755
15 2 0.113699 0.624683 0.829006
25 1 0.915972 0.0706202 0.996893
109 2 0.600244 0.363762 0.0938719
11 1 0.525286 0.0600302 0.997994
99 2 0.509976 0.992245 0.101844
135 2 0.828526 0.0422959 0.0838881
74 2 0.568827 0.168439 0.0388378
63 1 0.607703 0.281 0.00279652
126 2 0.684668 0.491949 0.232082
51 2 0.539053 0.124104 0.263731
88 2 0.651039 0.291107 0.277677
84 1 0.594852 0.201189 0.343958
17 1 0.615297 0.39223 0.213341
122 2 0.500905 0.423485 0.257393
5 2 0.771467 0.0064694 0.282857
93 1 0.967639 0.229861 0.345896
81 2 0.87209 0.155299 0.372982
43 2 0.824039 0.00569339 0.487317
4 2 0.516335 0.263611 0.418365
103 2 0.57683 0.440946 0.498803
129 2 0.675732 0.132432 0.408746
22 1 0.781833 0.0705872 0.388823
7 1 0.479412 0.363858 0.484545
144 2 0.968129 0.332056 0.415063
2 1 0.673744 0.453307 0.578355
76 2 0.582536 0.173891 0.637817
13 1 0.698155 0.217029 0.658944
23 2 0.692569 0.336444 0.620446
106 2 0.795108 0.159966 0.604328
86 1 0.876831 0.0668816 0.58484
6 2 0.872873 0.99799 0.688086
30 2 0.533506 0.31041 0.906471
111 2 0.864123 0.34094 0.84321
57 1 0.798335 0.239183 0.87471
98 2 0.867027 0.13966 0.905001
123 2 0.5939 0.0148159 0.905449
35 2 0.721093 0.208326 0.781422
85 1 0.955805 0.419688 0.814149
119 2 0.726501 0.270561 0.970482
145 2 0.840223 0.791825 0.0170058
141 2 0.648334 0.732617 0.995916
18 1 0.735446 0.764785 0.0788508
147 2 0.74915 0.674931 0.162474
53 2 0.716502 0.875169 0.136787
105 2 0.628759 0.662873 0.314523
150 2 0.913538 0.896679 0.188556
82 1 0.72982 0.603363 0.262559
47 1 0.510566 0.695685 0.303763
66 2 0.817546 0.594182 0.349282
8 1 0.803291 0.958039 0.172952
46 2 0.964092 0.694486 0.171643
143 2 0.909451 0.494364 0.190223
91 1 0.860821 0.56859 0.462495
29 2 0.863013 0.677171 0.523824
64 2 0.774172 0.498268 0.520821
134 2 0.977223 0.521367 0.471433
69 2 0.814967 0.808578 0.674877
27 1 0.530849 0.561122 0.737729
130 2 0.632226 0.523231 0.67437
26 1 0.790218 0.916476 0.731967
114 2 0.983233 0.693248 0.685691
45 1 0.905855 0.754676 0.609213
60 2 0.675992 0.963095 0.719727
59 1 0.580879 0.952382 0.798171
38 1 0.556183 0.73618 0.911978
100 2 0.54941 0.636037 0.837152
3 2 0.808338 0.893936 0.852539
107 2 0.572758 0.833209 0.83559
73 1 0.900663 0.849835 0.925597
1 2 0.934892 0.543916 0.810958
31 2 0.957037 0.956722 0.960496
10 2 0.963582 0.758392 0.868584
71 1 0.995428 0.655114 0.804853
