ITEM: TIMESTEP
2
ITEM: NUMBER OF ATOMS
150
ITEM: BOX BOUNDS pp pp pp
0.0000000000000000e+00 1.3089776965677981e+01
0.0000000000000000e+00 1.3089776965677981e+01
0.0000000000000000e+00 1.3089776965677981e+01
ITEM: ATOMS id type xs ys zs
70 2 0.17013 0.342355 0.148867
128 2 0.312321 0.482794 0.116578
40 1 0.339343 0.105497 0.243715
32 1 0.149463 0.238287 0.211678
50 1 0.194576 0.450275 0.0943132
101 2 0.331347 0.0567402 0.127966
95 2 0.0970785 0.14409 0.147928
62 2 0.260319 0.19867 0.25313
124 2 0.459113 0.134803 0.259471
55 1 0.56449 0.0773975 0.294534
54 1 0.50848 0.504933 0.40731
21 2 0.404609 0.512134 0.340436
14 2 0.0716363 0.262665 0.305072
68 2 0.230155 0.477657 0.443914
72 2 0.227464 0.408041 0.630806
94 1 0.177307 0.0910474 0.551634
36 2 0.298206 0.0950859 0.581397
146 2 0.487684 0.4461 0.515461
19 1 0.153403 0.444113 0.535734
20 1 0.407771 0.0605294 0.628228
113 2 0.493656 0.149689 0.639186
79 2 0.091161 0.117114 0.640425
42 2 0.153843 0.170529 0.459861
127 2 0.299977 0.297645 0.799712
33 1 0.233962 0.394388 0.754329
116 2 0.482859 0.205476 0.827661
112 2 0.113421 0.405749 0.790773
131 2 0.543596 0.337459 0.692328
56 2 0.290028 0.493603 0.805547
52 1 0.553931 0.216413 0.725859
139 2 0.341698 0.17986 0.96519
117 2 0.442699 0.362977 0.935819
77 1 0.386668 0.0759138 0.0182359
110 2 0.167135 0.433251 0.974809
16 1 0.542694 0.433444 0.963429
9 2 0.506389 0.105779 0.0430366
149 2 0.572948 0.509072 0.868947
140 2 0.513779 0.499366 0.0653043
34 1 0.38662 0.263478 0.883761
83 1 0.491456 0.756197 0.183059
65 1 0.405574 0.557803 0.0848851
104 2 0.425209 0.652601 0.162396
138 2 0.412153 0.844507 0.225413
148 2 0.119941 0.543485 0.130765
142 2 0.549929 0.77592 0.0745573
96 1 0.295503 0.558811 0.377598
78 1 0.331029 0.886016 0.310034
118 2 0.386878 0.844675 0.421439
125 2 0.530619 0.982454 0.366901
115 2 0.223008 0.601955 0.287884
87 2 0.215201 0.845995 0.299136
121 2 0.572988 0.740652 0.27704
61 2 0.544064 0.621994 0.432088
39 2 0.321188 0.00873989 0.320831
92 1 0.0920393 0.820545 0.308362
102 2 0.0821994 0.798348 0.431076
58 1 0.496171 0.907858 0.458668
89 1 0.10484 0.598204 0.24202
137 2 0.579932 0.81789 0.463652
132 2 0.326469 0.654208 0.45426
90 2 0.240645 0.803984 0.554097
80 1 0.349029 0.759691 0.514012
67 1 0.126932 0.852475 0.53361
41 2 0.432921 0.758744 0.605787
12 2 0.150421 0.974065 0.516687
44 2 0.456645 0.971124 0.556208
24 2 0.0463044 0.836812 0.625057
120 2 0.478214 0.839821 0.792307
75 1 0.473316 0.735202 0.722963
28 2 0.383599 0.666559 0.776029
48 1 0.457411 0.956079 0.833576
49 2 0.571849 0.00539787 0.844748
97 1 0.315874 0.603019 0.858159
136 2 0.579036 0.670623 0.739687
133 2 0.393963 0.0126566 0.742545
37 2 0.374573 0.592221 0.967765
108 2 0.397404 0.978719 0.941116
15 2 0.206778 0.657206 0.882285
25 1 0.00810727 0.0808165 0.0875212
109 2 0.71066 0.40282 0.188927
11 1 0.623191 0.106357 0.0864349
99 2 0.619406 0.0372768 0.190379
135 2 0.917343 0.0464556 0.167366
74 2 0.658333 0.218462 0.124371
63 1 0.711793 0.32633 0.0919446
126 2 0.794994 0.513105 0.337964
51 2 0.628999 0.155444 0.363837
88 2 0.751286 0.312353 0.369368
84 1 0.692936 0.228182 0.440792
17 1 0.720108 0.418675 0.311525
122 2 0.60515 0.447889 0.354097
5 2 0.873193 0.0339959 0.370239
93 1 0.0621905 0.250841 0.427414
81 2 0.959612 0.189827 0.459704
43 2 0.922713 0.0316983 0.571788
4 2 0.618888 0.29073 0.517976
103 2 0.669517 0.46576 0.598021
129 2 0.769577 0.152933 0.502733
22 1 0.877337 0.0976613 0.476459
7 1 0.57364 0.387629 0.582734
144 2 0.0816427 0.350932 0.496196
2 1 0.771671 0.471286 0.671002
76 2 0.675432 0.191913 0.740781
13 1 0.792776 0.236159 0.753342
23 2 0.783827 0.355597 0.716618
106 2 0.887932 0.179295 0.693995
86 1 0.973447 0.0901235 0.671369
6 2 0.971895 0.0120674 0.767806
30 2 0.642426 0.366051 0.996098
111 2 0.981941 0.358309 0.938779
57 1 0.904512 0.264443 0.96878
98 2 0.963661 0.159551 0.00191756
123 2 0.695816 0.0639678 0.996483
35 2 0.829724 0.238907 0.872321
85 1 0.0655914 0.441783 0.900856
119 2 0.829194 0.301997 0.0598057
145 2 0.928529 0.821501 0.107079
141 2 0.742913 0.752711 0.0988681
18 1 0.834452 0.781913 0.177345
147 2 0.863799 0.689221 0.253555
53 2 0.815519 0.885302 0.246228
105 2 0.731371 0.690707 0.394842
150 2 0.0141023 0.915612 0.284231
82 1 0.83611 0.628673 0.358639
47 1 0.612258 0.719312 0.394936
66 2 0.91435 0.632232 0.454175
8 1 0.902636 0.972664 0.266843
46 2 0.0732481 0.718699 0.241306
143 2 0.0370783 0.528678 0.315893
91 1 0.955111 0.578037 0.55839
29 2 0.944466 0.666393 0.645331
64 2 0.869031 0.495899 0.598069
134 2 0.0721127 0.53493 0.565535
69 2 0.875985 0.837976 0.736745
27 1 0.644103 0.602295 0.823033
130 2 0.741947 0.550089 0.764521
26 1 0.886138 0.935242 0.813063
114 2 0.0406491 0.739039 0.800166
45 1 0.973853 0.771015 0.700797
60 2 0.779397 0.996066 0.824412
59 1 0.682031 0.987907 0.89954
38 1 0.657023 0.765655 0.00947471
100 2 0.662091 0.674607 0.924499
3 2 0.923406 0.888633 0.921618
107 2 0.675202 0.872446 0.947852
73 1 0.000563902 0.860732 0.0152672
1 2 0.0334697 0.563294 0.905177
31 2 0.0503499 0.971602 0.0442149
10 2 0.071827 0.762879 0.989164
71 1 0.0855112 0.677982 0.899211
