ITEM: TIMESTEP
2
ITEM: NUMBER OF ATOMS
150
ITEM: BOX BOUNDS pp pp pp
0.0000000000000000e+00 1.3053994173192720e+01
0.0000000000000000e+00 1.3053994173192720e+01
0.0000000000000000e+00 1.3053994173192720e+01
ITEM: ATOMS id type xs ys zs
70 2 0.0852125 0.32456 0.0712091
128 2 0.217383 0.460574 0.000222411
40 1 0.2497 0.0624337 0.141855
32 1 0.0628881 0.211454 0.117208
50 1 0.0987658 0.42373 0.998074
101 2 0.243325 0.0127423 0.0263613
95 2 0.0118301 0.129739 0.0367722
62 2 0.170526 0.156373 0.151126
124 2 0.369608 0.0925642 0.161691
55 1 0.472523 0.0285957 0.194986
54 1 0.409528 0.462254 0.304444
21 2 0.303946 0.459374 0.239239
14 2 0.986572 0.224587 0.214181
68 2 0.135975 0.42213 0.349884
72 2 0.128457 0.371649 0.540773
94 1 0.0920725 0.061335 0.459159
36 2 0.209422 0.063066 0.498127
146 2 0.394285 0.40515 0.414772
19 1 0.0563312 0.40365 0.443726
20 1 0.316866 0.0141145 0.534955
113 2 0.409019 0.0974516 0.541603
79 2 0.000202061 0.0775368 0.54347
42 2 0.0758582 0.145585 0.370391
127 2 0.200587 0.257735 0.704119
33 1 0.13646 0.357862 0.664064
116 2 0.388675 0.167449 0.722226
112 2 0.0159062 0.369089 0.699169
131 2 0.45353 0.293736 0.584226
56 2 0.194697 0.454796 0.719373
52 1 0.464636 0.174263 0.623239
139 2 0.248772 0.120246 0.854664
117 2 0.339925 0.307722 0.847852
77 1 0.299704 0.0244577 0.916647
110 2 0.0584492 0.38529 0.886514
16 1 0.446904 0.36894 0.871391
9 2 0.418337 0.0584523 0.941923
149 2 0.481663 0.440577 0.774831
140 2 0.421884 0.442812 0.970022
34 1 0.288137 0.213881 0.782141
83 1 0.402951 0.718065 0.0844309
65 1 0.324501 0.520175 0.981185
104 2 0.342843 0.609706 0.0650997
138 2 0.316082 0.800828 0.122956
148 2 0.0258617 0.52323 0.0213781
142 2 0.463493 0.73511 0.976634
96 1 0.194451 0.504159 0.278152
78 1 0.236806 0.839785 0.210953
118 2 0.294805 0.794484 0.320086
125 2 0.43559 0.939634 0.274249
115 2 0.112621 0.54021 0.193116
87 2 0.12018 0.799182 0.206869
121 2 0.484314 0.705721 0.180087
61 2 0.441945 0.581569 0.325262
39 2 0.230427 0.96382 0.217274
92 1 0.995097 0.783617 0.217031
102 2 0.980393 0.779644 0.341974
58 1 0.400762 0.860377 0.362553
89 1 0.998976 0.555614 0.139465
137 2 0.488339 0.773918 0.369843
132 2 0.222318 0.604932 0.350543
90 2 0.147895 0.766252 0.451796
80 1 0.250197 0.709406 0.410882
67 1 0.0403057 0.829186 0.439052
41 2 0.33389 0.702857 0.502915
12 2 0.0707035 0.946999 0.412712
44 2 0.355491 0.922363 0.459133
24 2 0.977174 0.823923 0.54479
120 2 0.383022 0.791599 0.685544
75 1 0.365708 0.68421 0.623473
28 2 0.264562 0.634618 0.677503
48 1 0.364913 0.905645 0.732317
49 2 0.478247 0.959689 0.735849
97 1 0.225187 0.564004 0.771558
136 2 0.460168 0.606408 0.650606
133 2 0.29615 0.965676 0.647817
37 2 0.311424 0.562854 0.862287
108 2 0.31407 0.922667 0.84525
15 2 0.121366 0.608804 0.823464
25 1 0.925707 0.0555188 0.986734
109 2 0.6085 0.344399 0.0878497
11 1 0.53381 0.0424207 0.987886
99 2 0.515603 0.974155 0.0907561
135 2 0.839894 0.0285122 0.0750189
74 2 0.577864 0.150077 0.0299808
63 1 0.617529 0.262971 0.995668
126 2 0.68969 0.477737 0.223966
51 2 0.550222 0.104831 0.253377
88 2 0.659654 0.274241 0.270564
84 1 0.604225 0.182055 0.334915
17 1 0.621792 0.375949 0.207108
122 2 0.507611 0.406807 0.251747
5 2 0.780174 0.989482 0.271718
93 1 0.974822 0.212098 0.336568
81 2 0.877066 0.138863 0.361954
43 2 0.830535 0.987533 0.477883
4 2 0.52309 0.242915 0.408032
103 2 0.582727 0.418081 0.48727
129 2 0.681428 0.110759 0.401943
22 1 0.788678 0.0516542 0.378905
7 1 0.48362 0.342421 0.473918
144 2 0.979114 0.312166 0.409573
2 1 0.679784 0.432007 0.567005
76 2 0.58738 0.153683 0.63583
13 1 0.705151 0.196988 0.649529
23 2 0.700218 0.316459 0.611318
106 2 0.803777 0.14185 0.59474
86 1 0.883956 0.0472462 0.576006
6 2 0.88037 0.977989 0.678787
30 2 0.542498 0.294291 0.900007
111 2 0.871099 0.327171 0.834012
57 1 0.807524 0.224094 0.865291
98 2 0.873939 0.122495 0.895134
123 2 0.60279 0.000230751 0.893684
35 2 0.732045 0.192971 0.771201
85 1 0.963559 0.405434 0.806932
119 2 0.736356 0.253011 0.962717
145 2 0.855864 0.774493 0.00835178
141 2 0.661363 0.718277 0.981901
18 1 0.747949 0.748673 0.0655655
147 2 0.754648 0.659035 0.151182
53 2 0.72926 0.860415 0.121603
105 2 0.638858 0.647056 0.30921
150 2 0.924222 0.880157 0.179989
82 1 0.738459 0.588575 0.253359
47 1 0.519654 0.67622 0.298399
66 2 0.826613 0.581265 0.340687
8 1 0.814997 0.942631 0.161889
46 2 0.97245 0.67573 0.160471
143 2 0.917546 0.475821 0.182211
91 1 0.866396 0.551188 0.454769
29 2 0.867713 0.656891 0.520873
64 2 0.780726 0.476574 0.509223
134 2 0.983093 0.503818 0.461774
69 2 0.822742 0.787122 0.670893
27 1 0.537535 0.5429 0.72763
130 2 0.636225 0.504887 0.660016
26 1 0.798449 0.896679 0.724778
114 2 0.993596 0.670893 0.676584
45 1 0.913923 0.734544 0.604515
60 2 0.683872 0.941617 0.710025
59 1 0.588365 0.934507 0.788567
38 1 0.56446 0.716879 0.903075
100 2 0.560096 0.616967 0.827402
3 2 0.817386 0.878 0.845966
107 2 0.57742 0.816389 0.828786
73 1 0.912403 0.835073 0.916405
1 2 0.940375 0.529083 0.807021
31 2 0.967732 0.942167 0.951286
10 2 0.972368 0.744711 0.855162
71 1 0.00317023 0.637978 0.797639
