ITEM: TIMESTEP
2
ITEM: NUMBER OF ATOMS
150
ITEM: BOX BOUNDS pp pp pp
0.0000000000000000e+00 1.3038349059343080e+01
0.0000000000000000e+00 1.3038349059343080e+01
0.0000000000000000e+00 1.3038349059343080e+01
ITEM: ATOMS id type xs ys zs
70 2 0.14103 0.394841 0.191843
128 2 0.286576 0.537099 0.146182
40 1 0.304806 0.139973 0.273624
32 1 0.119502 0.281587 0.236213
50 1 0.169309 0.49924 0.132783
101 2 0.292788 0.0863061 0.158054
95 2 0.0776723 0.193124 0.158068
62 2 0.226486 0.234236 0.283206
124 2 0.424461 0.172585 0.285793
55 1 0.53261 0.127238 0.332324
54 1 0.47783 0.538885 0.44142
21 2 0.369335 0.545344 0.382219
14 2 0.0354267 0.289133 0.327382
68 2 0.214393 0.519556 0.51722
72 2 0.16182 0.405185 0.671044
94 1 0.156445 0.141806 0.585329
36 2 0.279088 0.144976 0.608342
146 2 0.464247 0.487914 0.555243
19 1 0.114391 0.474063 0.577019
20 1 0.390443 0.106333 0.651056
113 2 0.475039 0.195767 0.668706
79 2 0.0743979 0.170512 0.673223
42 2 0.126943 0.215268 0.489386
127 2 0.264571 0.322209 0.844562
33 1 0.188205 0.410126 0.792833
116 2 0.459725 0.243749 0.860719
112 2 0.0726653 0.420949 0.843426
131 2 0.516473 0.382194 0.732473
56 2 0.250533 0.516498 0.819181
52 1 0.529402 0.259496 0.761388
139 2 0.329167 0.214105 0.00614833
117 2 0.413152 0.400975 0.964359
77 1 0.356454 0.0977165 0.0540464
110 2 0.144665 0.472283 0.0123768
16 1 0.51146 0.484585 0.977874
9 2 0.477976 0.100104 0.0904913
149 2 0.532949 0.558842 0.882561
140 2 0.479028 0.555373 0.0744288
34 1 0.359824 0.298415 0.922082
83 1 0.4605 0.80985 0.203311
65 1 0.369356 0.613231 0.0938382
104 2 0.388363 0.714155 0.162642
138 2 0.380946 0.891469 0.252342
148 2 0.0928201 0.596788 0.162205
142 2 0.527229 0.840659 0.106315
96 1 0.260789 0.590539 0.425839
78 1 0.302856 0.92435 0.345949
118 2 0.366487 0.885288 0.452472
125 2 0.504224 0.0175731 0.386849
115 2 0.170683 0.597345 0.341409
87 2 0.190415 0.871692 0.342099
121 2 0.536797 0.777398 0.298281
61 2 0.519961 0.655859 0.453442
39 2 0.28788 0.0485179 0.355593
92 1 0.0701312 0.846283 0.363272
102 2 0.0644375 0.840498 0.490598
58 1 0.479928 0.943942 0.484162
89 1 0.0606699 0.617832 0.280348
137 2 0.562908 0.856956 0.483175
132 2 0.29055 0.702174 0.476735
90 2 0.227709 0.854845 0.598437
80 1 0.323701 0.802005 0.541916
67 1 0.11086 0.901662 0.586929
41 2 0.414403 0.792923 0.62658
12 2 0.128251 0.0205887 0.55749
44 2 0.441343 0.0141283 0.576612
24 2 0.0420616 0.88759 0.688847
120 2 0.435943 0.871747 0.819447
75 1 0.440439 0.770517 0.746955
28 2 0.350952 0.692067 0.785556
48 1 0.425514 0.991481 0.857389
49 2 0.541143 0.0362545 0.877745
97 1 0.27453 0.632004 0.863658
136 2 0.554188 0.720116 0.763857
133 2 0.373817 0.0524805 0.76227
37 2 0.32545 0.637815 0.97906
108 2 0.355455 0.0153745 0.96069
15 2 0.162739 0.686609 0.871832
25 1 0.989086 0.113756 0.1195
109 2 0.666355 0.435096 0.214078
11 1 0.589301 0.147985 0.121149
99 2 0.612947 0.110768 0.238668
135 2 0.912739 0.077218 0.215015
74 2 0.586609 0.270899 0.127264
63 1 0.665256 0.369403 0.108839
126 2 0.753339 0.538338 0.364266
51 2 0.572147 0.200921 0.423686
88 2 0.714356 0.336611 0.392675
84 1 0.660095 0.26544 0.483784
17 1 0.680263 0.443268 0.33796
122 2 0.565865 0.470558 0.387159
5 2 0.849752 0.0606711 0.409214
93 1 0.0309698 0.288206 0.451025
81 2 0.928467 0.229604 0.488966
43 2 0.902531 0.0777765 0.607413
4 2 0.614427 0.345496 0.567466
103 2 0.638239 0.524973 0.650536
129 2 0.738569 0.181874 0.533108
22 1 0.850843 0.133534 0.51173
7 1 0.553694 0.437957 0.627883
144 2 0.0464168 0.398138 0.50618
2 1 0.747636 0.526828 0.715563
76 2 0.654299 0.239088 0.77542
13 1 0.771534 0.285308 0.783491
23 2 0.760992 0.407592 0.751513
106 2 0.866597 0.234237 0.720948
86 1 0.953107 0.143501 0.70594
6 2 0.950882 0.0718323 0.807405
30 2 0.621477 0.424595 0.0093579
111 2 0.952222 0.388762 0.00314508
57 1 0.869258 0.2929 0.0114523
98 2 0.921599 0.182766 0.0401903
123 2 0.663312 0.113737 0.0257496
35 2 0.809731 0.282534 0.902371
85 1 0.0345284 0.466866 0.952403
119 2 0.779537 0.320626 0.0940571
145 2 0.918711 0.845882 0.13338
141 2 0.723074 0.793542 0.123954
18 1 0.821212 0.807181 0.199216
147 2 0.838371 0.705925 0.265076
53 2 0.804602 0.911919 0.276764
105 2 0.712537 0.7214 0.409464
150 2 0.993426 0.936707 0.330351
82 1 0.809434 0.649578 0.373704
47 1 0.586854 0.753425 0.412476
66 2 0.89422 0.650718 0.465654
8 1 0.883509 0.996486 0.306018
46 2 0.0423964 0.738423 0.308518
143 2 0.974469 0.538481 0.311831
91 1 0.928594 0.629182 0.582984
29 2 0.919308 0.741521 0.636378
64 2 0.842787 0.560304 0.64348
134 2 0.0409907 0.573316 0.602545
69 2 0.852915 0.901596 0.761156
27 1 0.612039 0.654209 0.851853
130 2 0.720659 0.605956 0.809333
26 1 0.864209 0.991817 0.84633
114 2 0.974861 0.75332 0.825916
45 1 0.942165 0.821114 0.726973
60 2 0.755066 0.0499702 0.855998
59 1 0.65571 0.0347633 0.930106
38 1 0.6355 0.815414 0.0391046
100 2 0.62345 0.722264 0.9556
3 2 0.90161 0.935612 0.95118
107 2 0.664538 0.918468 0.97721
73 1 0.984267 0.895932 0.0386041
1 2 0.002716 0.590125 0.941397
31 2 0.0340806 0.00538213 0.0756736
10 2 0.0520916 0.798412 0.998395
71 1 0.0463393 0.704284 0.915889
