ITEM: TIMESTEP
2
ITEM: NUMBER OF ATOMS
150
ITEM: BOX BOUNDS pp pp pp
0.0000000000000000e+00 1.3093873425775964e+01
0.0000000000000000e+00 1.3093873425775964e+01
0.0000000000000000e+00 1.3093873425775964e+01
ITEM: ATOMS id type xs ys zs
70 2 0.167169 0.338351 0.141883
128 2 0.311461 0.479479 0.112471
40 1 0.338658 0.105091 0.238967
32 1 0.146353 0.236807 0.208115
50 1 0.1938 0.446775 0.0896705
101 2 0.332811 0.0563885 0.123424
95 2 0.0968424 0.140594 0.14602
62 2 0.25707 0.196128 0.249388
124 2 0.458139 0.136078 0.25551
55 1 0.562846 0.0765409 0.289352
54 1 0.508468 0.50236 0.404641
21 2 0.403428 0.507035 0.339475
14 2 0.0678993 0.263039 0.300224
68 2 0.230457 0.476771 0.439219
72 2 0.225423 0.409757 0.626042
94 1 0.175001 0.0880886 0.548135
36 2 0.295206 0.0927422 0.579633
146 2 0.486065 0.442296 0.511501
19 1 0.153115 0.442143 0.529036
20 1 0.406494 0.0597941 0.623251
113 2 0.493471 0.148084 0.634919
79 2 0.0903732 0.116453 0.636991
42 2 0.150708 0.165395 0.45424
127 2 0.300932 0.297339 0.792582
33 1 0.235533 0.395165 0.748864
116 2 0.481656 0.203247 0.822768
112 2 0.115677 0.403322 0.78725
131 2 0.54283 0.336111 0.688433
56 2 0.293711 0.493575 0.798664
52 1 0.553787 0.215134 0.721628
139 2 0.339365 0.181357 0.960941
117 2 0.443522 0.360415 0.931628
77 1 0.387076 0.0787173 0.0141951
110 2 0.167507 0.430834 0.969421
16 1 0.543652 0.431208 0.958536
9 2 0.506451 0.109454 0.0389778
149 2 0.5754 0.508625 0.866072
140 2 0.514934 0.49872 0.0603803
34 1 0.385556 0.262505 0.878049
83 1 0.489034 0.753144 0.178641
65 1 0.405159 0.55418 0.0805685
104 2 0.42205 0.650099 0.157429
138 2 0.410716 0.842538 0.21927
148 2 0.118354 0.538186 0.128327
142 2 0.547519 0.773312 0.0705619
96 1 0.295675 0.558337 0.374272
78 1 0.330101 0.883029 0.304366
118 2 0.385092 0.842971 0.417043
125 2 0.53115 0.980058 0.36129
115 2 0.223495 0.60127 0.28405
87 2 0.214437 0.84281 0.293681
121 2 0.570494 0.737946 0.273156
61 2 0.543947 0.619671 0.427845
39 2 0.323067 0.00653573 0.314458
92 1 0.0911974 0.817459 0.302782
102 2 0.0810856 0.798308 0.426112
58 1 0.494722 0.906241 0.452764
89 1 0.105396 0.595771 0.238222
137 2 0.577109 0.815232 0.459527
132 2 0.327557 0.653665 0.449774
90 2 0.239794 0.798892 0.552471
80 1 0.349197 0.758124 0.511408
67 1 0.126509 0.847882 0.530702
41 2 0.433119 0.754215 0.60274
12 2 0.150253 0.9696 0.515539
44 2 0.454661 0.970366 0.549716
24 2 0.0456339 0.831673 0.621567
120 2 0.473862 0.839316 0.788125
75 1 0.472063 0.733761 0.720744
28 2 0.381662 0.668964 0.775856
48 1 0.454744 0.955791 0.828279
49 2 0.571071 0.00252399 0.836791
97 1 0.315264 0.601855 0.85503
136 2 0.577466 0.668905 0.736666
133 2 0.391651 0.0125037 0.737293
37 2 0.374479 0.587054 0.963046
108 2 0.39663 0.982022 0.935555
15 2 0.207116 0.65591 0.88164
25 1 0.00934889 0.0770384 0.0849373
109 2 0.714416 0.401493 0.1867
11 1 0.623118 0.106476 0.0829507
99 2 0.617715 0.0363377 0.18558
135 2 0.918421 0.0454682 0.165741
74 2 0.661469 0.217638 0.119711
63 1 0.71469 0.326042 0.0887213
126 2 0.796062 0.511623 0.338493
51 2 0.62966 0.15383 0.357075
88 2 0.750643 0.310716 0.367708
84 1 0.691606 0.225117 0.436681
17 1 0.722084 0.417503 0.309538
122 2 0.607085 0.44937 0.350566
5 2 0.871667 0.0349222 0.365782
93 1 0.0607815 0.24808 0.422251
81 2 0.956533 0.190661 0.456898
43 2 0.924056 0.0305554 0.566058
4 2 0.616248 0.28794 0.512535
103 2 0.66709 0.4642 0.593654
129 2 0.766694 0.14927 0.499918
22 1 0.875822 0.0972561 0.472693
7 1 0.572395 0.384707 0.578285
144 2 0.0828799 0.348707 0.488728
2 1 0.769654 0.469661 0.665851
76 2 0.676013 0.193632 0.735996
13 1 0.794254 0.236055 0.749764
23 2 0.784904 0.35482 0.712118
106 2 0.888501 0.178133 0.690143
86 1 0.9726 0.0878586 0.667239
6 2 0.969814 0.00972688 0.763427
30 2 0.644398 0.365259 0.992255
111 2 0.980648 0.354663 0.933631
57 1 0.904502 0.260295 0.966046
98 2 0.963071 0.155257 0.999429
123 2 0.693748 0.0625615 0.992153
35 2 0.82876 0.236877 0.869613
85 1 0.0652791 0.437894 0.896275
119 2 0.832348 0.299984 0.0590748
145 2 0.926234 0.820539 0.104452
141 2 0.740569 0.751449 0.0964811
18 1 0.832437 0.780396 0.17455
147 2 0.860737 0.686652 0.249949
53 2 0.813218 0.883808 0.243418
105 2 0.731793 0.692014 0.393535
150 2 0.0121685 0.911526 0.278875
82 1 0.835463 0.627986 0.356743
47 1 0.611743 0.717349 0.390848
66 2 0.913757 0.628701 0.451855
8 1 0.90088 0.970593 0.263904
46 2 0.0728096 0.715975 0.234983
143 2 0.0381676 0.52892 0.314699
91 1 0.95445 0.571915 0.554225
29 2 0.946724 0.659035 0.64302
64 2 0.867705 0.490622 0.592803
134 2 0.0724625 0.532496 0.55764
69 2 0.875602 0.834449 0.732289
27 1 0.645205 0.60231 0.819132
130 2 0.741785 0.549021 0.759419
26 1 0.884871 0.93167 0.809285
114 2 0.0404863 0.736185 0.796678
45 1 0.972661 0.765522 0.69689
60 2 0.77918 0.994093 0.822676
59 1 0.679771 0.986484 0.895135
38 1 0.655292 0.765545 0.00688036
100 2 0.663401 0.677834 0.917962
3 2 0.921335 0.884911 0.917927
107 2 0.672082 0.873119 0.946769
73 1 0.999125 0.857643 0.0121322
1 2 0.0349929 0.559796 0.898705
31 2 0.0510023 0.967731 0.040307
10 2 0.0689355 0.758782 0.985784
71 1 0.0854633 0.675194 0.895316
