ITEM: TIMESTEP
2
ITEM: NUMBER OF ATOMS
150
ITEM: BOX BOUNDS pp pp pp
0.0000000000000000e+00 1.3080060591430602e+01
0.0000000000000000e+00 1.3080060591430602e+01
0.0000000000000000e+00 1.3080060591430602e+01
ITEM: ATOMS id type xs ys zs
70 2 0.0991157 0.340647 0.11024
128 2 0.259071 0.4578 0.0638768
40 1 0.270052 0.0877116 0.17379
32 1 0.0794595 0.224591 0.148299
50 1 0.137429 0.440741 0.0487896
101 2 0.263212 0.0408899 0.0577622
95 2 0.0367754 0.14231 0.0649859
62 2 0.18809 0.178036 0.188714
124 2 0.389266 0.118156 0.195118
55 1 0.497149 0.0665247 0.232357
54 1 0.439014 0.47948 0.34465
21 2 0.32904 0.491421 0.288593
14 2 0.995073 0.226224 0.239311
68 2 0.181973 0.482977 0.427772
72 2 0.136532 0.367195 0.578728
94 1 0.117866 0.0843695 0.497463
36 2 0.24046 0.0961071 0.518009
146 2 0.423507 0.424162 0.455714
19 1 0.0849936 0.427649 0.482285
20 1 0.353649 0.0600757 0.554984
113 2 0.438478 0.147404 0.577992
79 2 0.032013 0.112405 0.586044
42 2 0.0839877 0.154346 0.400928
127 2 0.234781 0.287936 0.750014
33 1 0.162875 0.376281 0.699511
116 2 0.419706 0.195653 0.768503
112 2 0.0485356 0.386046 0.749892
131 2 0.481308 0.330659 0.640193
56 2 0.225743 0.481027 0.729069
52 1 0.495554 0.208807 0.670129
139 2 0.283801 0.178652 0.911354
117 2 0.389342 0.357955 0.872271
77 1 0.320969 0.0660549 0.950651
110 2 0.111209 0.418822 0.928806
16 1 0.488271 0.429933 0.899435
9 2 0.440492 0.0859089 0.982546
149 2 0.512755 0.510394 0.807886
140 2 0.456764 0.489032 0.00580235
34 1 0.328104 0.258827 0.826973
83 1 0.417761 0.737993 0.126763
65 1 0.343889 0.538519 0.0241859
104 2 0.3528 0.634346 0.10251
138 2 0.335842 0.821863 0.171368
148 2 0.0755437 0.546702 0.0725735
142 2 0.477089 0.764115 0.0203024
96 1 0.225922 0.546381 0.33096
78 1 0.258394 0.868894 0.255955
118 2 0.318064 0.845052 0.369012
125 2 0.467373 0.958265 0.287179
115 2 0.128911 0.556967 0.255895
87 2 0.144847 0.821847 0.260303
121 2 0.502052 0.720977 0.218242
61 2 0.480313 0.595743 0.367469
39 2 0.248161 0.991546 0.250219
92 1 0.0213008 0.799362 0.270416
102 2 0.00463052 0.796871 0.394941
58 1 0.435635 0.897463 0.389745
89 1 0.026571 0.576717 0.184366
137 2 0.508125 0.7985 0.401067
132 2 0.263147 0.65866 0.372877
90 2 0.171878 0.781612 0.499417
80 1 0.281282 0.752206 0.451736
67 1 0.0641854 0.844007 0.493937
41 2 0.362169 0.748517 0.545925
12 2 0.0971235 0.962535 0.472935
44 2 0.409916 0.978101 0.478776
24 2 0.00484426 0.830055 0.601067
120 2 0.414187 0.833194 0.728731
75 1 0.403603 0.727414 0.662877
28 2 0.317538 0.659037 0.722049
48 1 0.39487 0.951954 0.759983
49 2 0.508213 0.00548626 0.769976
97 1 0.250675 0.584292 0.795502
136 2 0.51185 0.666875 0.675694
133 2 0.334898 0.000550252 0.662832
37 2 0.308263 0.569424 0.906305
108 2 0.328838 0.977826 0.862619
15 2 0.137764 0.629861 0.821991
25 1 0.948285 0.0628241 0.0275587
109 2 0.655807 0.39348 0.123733
11 1 0.555029 0.108659 0.0248088
99 2 0.566046 0.0444268 0.130997
135 2 0.865085 0.0331558 0.117111
74 2 0.573071 0.225971 0.0586279
63 1 0.64995 0.319051 0.0255962
126 2 0.713243 0.495635 0.28624
51 2 0.549214 0.139441 0.317346
88 2 0.679254 0.290278 0.303422
84 1 0.624048 0.212429 0.384781
17 1 0.64869 0.397967 0.247266
122 2 0.528749 0.418997 0.282885
5 2 0.820122 0.0265179 0.315012
93 1 0.996228 0.236145 0.362145
81 2 0.889996 0.193173 0.409382
43 2 0.866546 0.0271004 0.513612
4 2 0.566911 0.285283 0.467558
103 2 0.597596 0.466482 0.547448
129 2 0.703208 0.135928 0.442094
22 1 0.816896 0.0926884 0.419731
7 1 0.511397 0.378767 0.529896
144 2 0.0282249 0.346147 0.407773
2 1 0.704263 0.473418 0.612917
76 2 0.618338 0.189036 0.680924
13 1 0.734627 0.237068 0.690793
23 2 0.723359 0.356552 0.654568
106 2 0.829157 0.17691 0.633851
86 1 0.913028 0.0851288 0.615448
6 2 0.906045 0.00914446 0.713145
30 2 0.592807 0.366601 0.924531
111 2 0.927275 0.328338 0.90006
57 1 0.840775 0.238381 0.912298
98 2 0.888422 0.125448 0.937005
123 2 0.625419 0.08054 0.926241
35 2 0.770506 0.236149 0.809787
85 1 0.00482838 0.417906 0.861924
119 2 0.762288 0.272126 0.00299258
145 2 0.868145 0.800339 0.0521654
141 2 0.6749 0.760148 0.0339673
18 1 0.766461 0.770624 0.117141
147 2 0.778808 0.668618 0.185675
53 2 0.753206 0.871886 0.191263
105 2 0.664775 0.676611 0.341608
150 2 0.947791 0.892098 0.231976
82 1 0.762762 0.609302 0.294098
47 1 0.543767 0.698278 0.335477
66 2 0.854976 0.612225 0.377056
8 1 0.84193 0.957402 0.214101
46 2 0.00178933 0.697141 0.203865
143 2 0.934376 0.501606 0.211128
91 1 0.888595 0.573344 0.490169
29 2 0.887984 0.674142 0.562659
64 2 0.797599 0.501295 0.536509
134 2 0.999185 0.516392 0.505566
69 2 0.821122 0.829936 0.683431
27 1 0.579828 0.606262 0.76193
130 2 0.679911 0.555653 0.705144
26 1 0.826478 0.926622 0.76183
114 2 0.959652 0.696758 0.747183
45 1 0.915171 0.756966 0.648793
60 2 0.715791 0.979812 0.775603
59 1 0.610982 0.992037 0.83931
38 1 0.581992 0.770585 0.951512
100 2 0.590855 0.683665 0.861244
3 2 0.868347 0.880517 0.869397
107 2 0.588632 0.884433 0.900499
73 1 0.943358 0.84289 0.963096
1 2 0.965578 0.53679 0.865074
31 2 0.996487 0.95044 0.998134
10 2 0.012117 0.745617 0.928136
71 1 0.0176345 0.650354 0.84747
