ITEM: TIMESTEP
2
ITEM: NUMBER OF ATOMS
150
ITEM: BOX BOUNDS pp pp pp
0.0000000000000000e+00 1.3111746476145534e+01
0.0000000000000000e+00 1.3111746476145534e+01
0.0000000000000000e+00 1.3111746476145534e+01
ITEM: ATOMS id type xs ys zs
70 2 0.0676767 0.27204 0.0671655
128 2 0.214498 0.407507 0.0252098
40 1 0.234152 0.0245948 0.149684
32 1 0.0471066 0.163088 0.120961
50 1 0.0953331 0.37803 0.0108576
101 2 0.223122 0.979244 0.0333108
95 2 0.000835815 0.0743513 0.0465697
62 2 0.155105 0.117251 0.16334
124 2 0.35452 0.0538871 0.162918
55 1 0.461245 0.00707768 0.207361
54 1 0.414497 0.424175 0.315886
21 2 0.307229 0.431909 0.25572
14 2 0.967694 0.17895 0.213688
68 2 0.135921 0.406481 0.366116
72 2 0.114527 0.327006 0.545153
94 1 0.0872483 0.028952 0.466681
36 2 0.208569 0.039729 0.49186
146 2 0.399422 0.368339 0.42604
19 1 0.0492679 0.372137 0.44798
20 1 0.317676 0.996033 0.530657
113 2 0.406575 0.0814567 0.543301
79 2 0.999662 0.054951 0.553226
42 2 0.0560349 0.0975304 0.369006
127 2 0.202159 0.217687 0.710068
33 1 0.131564 0.311284 0.666611
116 2 0.3918 0.134095 0.73281
112 2 0.014779 0.312155 0.713358
131 2 0.450424 0.268635 0.602822
56 2 0.189691 0.413547 0.709279
52 1 0.46394 0.147512 0.632171
139 2 0.253817 0.101383 0.871918
117 2 0.343761 0.288608 0.840884
77 1 0.2843 0.993727 0.92669
110 2 0.0712556 0.360758 0.890889
16 1 0.441335 0.362462 0.864851
9 2 0.404956 0.00465562 0.958621
149 2 0.464636 0.44082 0.771329
140 2 0.409657 0.425998 0.96722
34 1 0.29289 0.186553 0.78989
83 1 0.385557 0.684768 0.0897882
65 1 0.302871 0.485658 0.989391
104 2 0.325827 0.577886 0.0684365
138 2 0.303298 0.768175 0.133956
148 2 0.0236388 0.473223 0.0479341
142 2 0.444518 0.71333 0.984261
96 1 0.200935 0.482127 0.293892
78 1 0.229244 0.807072 0.225182
118 2 0.289703 0.77138 0.334448
125 2 0.42995 0.904944 0.270175
115 2 0.126337 0.522859 0.205527
87 2 0.11634 0.759046 0.225947
121 2 0.468517 0.669614 0.18281
61 2 0.45447 0.540821 0.334533
39 2 0.217204 0.929925 0.228768
92 1 0.99338 0.739478 0.23846
102 2 0.978651 0.743392 0.362899
58 1 0.400426 0.832937 0.365611
89 1 0.00704889 0.514461 0.165028
137 2 0.482027 0.740767 0.368066
132 2 0.234936 0.58181 0.361672
90 2 0.145028 0.727145 0.467793
80 1 0.252145 0.685233 0.424661
67 1 0.0378977 0.790335 0.461584
41 2 0.335641 0.681368 0.51553
12 2 0.0693853 0.908389 0.440513
44 2 0.363664 0.904153 0.458968
24 2 0.97634 0.781976 0.567824
120 2 0.366674 0.766147 0.701402
75 1 0.368527 0.660837 0.634633
28 2 0.280048 0.588686 0.682908
48 1 0.353582 0.884168 0.737258
49 2 0.469148 0.929965 0.754509
97 1 0.210328 0.524158 0.762094
136 2 0.478251 0.605695 0.653571
133 2 0.300151 0.943888 0.642336
37 2 0.265039 0.523979 0.874989
108 2 0.287693 0.903302 0.841012
15 2 0.0971864 0.573499 0.775016
25 1 0.914285 0.00021698 0.998512
109 2 0.608783 0.320211 0.0871027
11 1 0.519866 0.0298583 0.998231
99 2 0.532464 0.978011 0.109811
135 2 0.828423 0.965116 0.0829439
74 2 0.532786 0.151302 0.0136688
63 1 0.604715 0.249159 0.986966
126 2 0.687657 0.432043 0.234461
51 2 0.511331 0.0876382 0.286017
88 2 0.649654 0.228114 0.266328
84 1 0.59481 0.153425 0.350396
17 1 0.616691 0.334258 0.209383
122 2 0.503469 0.361508 0.256508
5 2 0.783446 0.952013 0.282733
93 1 0.964301 0.177098 0.336844
81 2 0.859668 0.118988 0.368569
43 2 0.834063 0.964857 0.482535
4 2 0.546367 0.228633 0.436534
103 2 0.574937 0.407088 0.51972
129 2 0.671081 0.0705941 0.402204
22 1 0.783566 0.0222214 0.384134
7 1 0.488127 0.321242 0.497661
144 2 0.981682 0.277201 0.406504
2 1 0.678376 0.41205 0.591006
76 2 0.586437 0.127208 0.64494
13 1 0.703589 0.172249 0.657626
23 2 0.693836 0.294434 0.63104
106 2 0.797977 0.121981 0.592415
86 1 0.880729 0.0287668 0.580541
6 2 0.868051 0.958426 0.681492
30 2 0.547797 0.302945 0.890058
111 2 0.885208 0.275156 0.865092
57 1 0.806208 0.178767 0.879855
98 2 0.860736 0.0718336 0.912278
123 2 0.594761 0.992034 0.907667
35 2 0.742359 0.16041 0.774837
85 1 0.968316 0.356196 0.820288
119 2 0.719223 0.20895 0.963147
145 2 0.832552 0.741714 0.0118467
141 2 0.64076 0.682732 0.00759841
18 1 0.737962 0.702726 0.082291
147 2 0.763099 0.60374 0.151657
53 2 0.723964 0.801287 0.158613
105 2 0.633788 0.614109 0.295248
150 2 0.921372 0.831576 0.19617
82 1 0.732642 0.545414 0.257097
47 1 0.51446 0.643408 0.297204
66 2 0.816203 0.540883 0.347306
8 1 0.810441 0.888742 0.179976
46 2 0.969075 0.631999 0.182327
143 2 0.954118 0.426066 0.229833
91 1 0.859494 0.519392 0.461362
29 2 0.856448 0.631139 0.515694
64 2 0.77608 0.448386 0.523514
134 2 0.974274 0.469774 0.47253
69 2 0.786899 0.780879 0.639333
27 1 0.539446 0.535034 0.736493
130 2 0.643205 0.48739 0.6854
26 1 0.788009 0.872956 0.72265
114 2 0.920573 0.640702 0.701057
45 1 0.882225 0.709879 0.605936
60 2 0.676769 0.925104 0.734094
59 1 0.579955 0.916996 0.809661
38 1 0.552224 0.698387 0.921833
100 2 0.549031 0.603973 0.840815
3 2 0.82945 0.820384 0.827514
107 2 0.577896 0.801583 0.857632
73 1 0.905143 0.783552 0.920819
1 2 0.931406 0.475888 0.816564
31 2 0.958557 0.890596 0.9571
10 2 0.970326 0.684288 0.884066
71 1 0.977397 0.591845 0.800075
