ITEM: TIMESTEP
2
ITEM: NUMBER OF ATOMS
150
ITEM: BOX BOUNDS pp pp pp
0.0000000000000000e+00 1.3060484985144171e+01
0.0000000000000000e+00 1.3060484985144171e+01
0.0000000000000000e+00 1.3060484985144171e+01
ITEM: ATOMS id type xs ys zs
70 2 0.0754543 0.357031 0.125431
128 2 0.227954 0.490283 0.0861225
40 1 0.235853 0.111317 0.21456
32 1 0.0469877 0.251043 0.185999
50 1 0.106811 0.463067 0.0670307
101 2 0.227551 0.0636078 0.0971137
95 2 0.999222 0.159813 0.115612
62 2 0.155192 0.203349 0.228293
124 2 0.354474 0.147005 0.231122
55 1 0.46017 0.10007 0.277549
54 1 0.417652 0.510829 0.377842
21 2 0.309443 0.514254 0.318524
14 2 0.968932 0.273444 0.278826
68 2 0.133268 0.48885 0.421415
72 2 0.123894 0.40633 0.601463
94 1 0.0902819 0.109358 0.523996
36 2 0.21225 0.109678 0.551713
146 2 0.405719 0.459809 0.491221
19 1 0.0514774 0.452961 0.50925
20 1 0.325868 0.0782422 0.590692
113 2 0.412174 0.164249 0.602486
79 2 0.00518699 0.137299 0.614613
42 2 0.0598547 0.188613 0.432782
127 2 0.213111 0.297263 0.769182
33 1 0.14376 0.391137 0.723831
116 2 0.399674 0.210264 0.79377
112 2 0.0256167 0.396172 0.768586
131 2 0.451963 0.352773 0.667532
56 2 0.202579 0.493804 0.76785
52 1 0.468468 0.227672 0.690707
139 2 0.264248 0.186045 0.939015
117 2 0.359456 0.367784 0.900104
77 1 0.292667 0.0746589 0.991628
110 2 0.0863567 0.437154 0.947139
16 1 0.454335 0.446988 0.917103
9 2 0.412321 0.0818585 0.0309127
149 2 0.474028 0.522345 0.818966
140 2 0.424641 0.512327 0.0202508
34 1 0.302811 0.268247 0.851901
83 1 0.397678 0.773015 0.144998
65 1 0.315863 0.569482 0.0435753
104 2 0.337897 0.665805 0.120124
138 2 0.313842 0.854058 0.191183
148 2 0.0388984 0.559963 0.0975514
142 2 0.459094 0.802275 0.0416868
96 1 0.203413 0.567923 0.354933
78 1 0.238883 0.890864 0.283476
118 2 0.302759 0.851403 0.392436
125 2 0.434171 0.9883 0.327467
115 2 0.133886 0.607383 0.260408
87 2 0.126002 0.841339 0.284728
121 2 0.480175 0.754529 0.23949
61 2 0.456844 0.63128 0.39124
39 2 0.222436 0.013197 0.291466
92 1 0.00372226 0.819935 0.298786
102 2 0.993642 0.809212 0.425602
58 1 0.415703 0.911988 0.4237
89 1 0.0157166 0.600779 0.210458
137 2 0.499489 0.8259 0.423022
132 2 0.234432 0.663273 0.426692
90 2 0.160217 0.821479 0.532767
80 1 0.26247 0.76762 0.484055
67 1 0.0436374 0.870195 0.522443
41 2 0.351242 0.765431 0.574112
12 2 0.0628699 0.990007 0.490453
44 2 0.375029 0.982767 0.517045
24 2 0.978517 0.858077 0.623142
120 2 0.375204 0.849663 0.763069
75 1 0.38455 0.744258 0.694254
28 2 0.292316 0.671051 0.739227
48 1 0.362023 0.968018 0.802865
49 2 0.479193 0.00843148 0.822741
97 1 0.220763 0.606263 0.818853
136 2 0.492252 0.693087 0.714961
133 2 0.31127 0.0261159 0.704402
37 2 0.275618 0.603116 0.930259
108 2 0.293796 0.98891 0.903435
15 2 0.108315 0.658018 0.829516
25 1 0.917805 0.0809235 0.06478
109 2 0.604862 0.400253 0.148034
11 1 0.529326 0.111313 0.0645355
99 2 0.541954 0.0861816 0.185134
135 2 0.83309 0.0438816 0.151057
74 2 0.545149 0.233374 0.051701
63 1 0.616602 0.335977 0.0409458
126 2 0.699033 0.501579 0.298642
51 2 0.499422 0.174191 0.36974
88 2 0.644392 0.302285 0.326835
84 1 0.594773 0.236803 0.421455
17 1 0.619584 0.412859 0.271418
122 2 0.507897 0.448526 0.31807
5 2 0.783329 0.0302488 0.35048
93 1 0.96273 0.264221 0.400731
81 2 0.861353 0.198985 0.432325
43 2 0.83603 0.046565 0.550733
4 2 0.553467 0.320227 0.503516
103 2 0.578852 0.49718 0.592542
129 2 0.670898 0.15288 0.469361
22 1 0.782533 0.10332 0.45247
7 1 0.49375 0.411633 0.564808
144 2 0.975774 0.365318 0.467994
2 1 0.685589 0.495894 0.656097
76 2 0.590909 0.210792 0.706184
13 1 0.708199 0.25686 0.721921
23 2 0.69889 0.378768 0.696781
106 2 0.804562 0.205217 0.65915
86 1 0.887728 0.112717 0.646523
6 2 0.881767 0.0439183 0.748451
30 2 0.566385 0.395249 0.942284
111 2 0.900688 0.348286 0.920473
57 1 0.81408 0.259632 0.943676
98 2 0.862229 0.148519 0.975342
123 2 0.601537 0.0523855 0.983033
35 2 0.742367 0.245131 0.84146
85 1 0.98127 0.434774 0.879346
119 2 0.73439 0.301306 0.0275524
145 2 0.844878 0.81879 0.0758242
141 2 0.651781 0.762871 0.0704475
18 1 0.75042 0.77954 0.145318
147 2 0.771208 0.669703 0.2059
53 2 0.736687 0.873215 0.225775
105 2 0.642276 0.686415 0.352116
150 2 0.927897 0.914304 0.267533
82 1 0.744875 0.613495 0.316925
47 1 0.527171 0.729192 0.356981
66 2 0.826055 0.620272 0.40838
8 1 0.81496 0.966188 0.247819
46 2 0.976152 0.716534 0.233863
143 2 0.952796 0.515661 0.270256
91 1 0.863383 0.598855 0.523417
29 2 0.853447 0.711034 0.580786
64 2 0.782461 0.527929 0.586315
134 2 0.979843 0.553143 0.538364
69 2 0.793984 0.866517 0.707718
27 1 0.548167 0.619873 0.792934
130 2 0.66019 0.576039 0.75393
26 1 0.80098 0.960512 0.790199
114 2 0.925344 0.721072 0.763883
45 1 0.886926 0.793084 0.668055
60 2 0.689193 0.014515 0.803006
59 1 0.590918 0.990942 0.874887
38 1 0.564803 0.777135 0.981712
100 2 0.557586 0.676377 0.906845
3 2 0.841184 0.905373 0.895329
107 2 0.596632 0.870474 0.905953
73 1 0.917411 0.863114 0.987276
1 2 0.944316 0.555242 0.877817
31 2 0.969042 0.972196 0.0257234
10 2 0.981022 0.764416 0.946018
71 1 0.988822 0.672432 0.861896
