ITEM: TIMESTEP
2
ITEM: NUMBER OF ATOMS
150
ITEM: BOX BOUNDS pp pp pp
0.0000000000000000e+00 1.3067316023731980e+01
0.0000000000000000e+00 1.3067316023731980e+01
0.0000000000000000e+00 1.3067316023731980e+01
ITEM: ATOMS id type xs ys zs
70 2 0.111931 0.33824 0.0999447
128 2 0.262402 0.47265 0.0593481
40 1 0.278272 0.0883836 0.184132
32 1 0.0876407 0.228844 0.155311
50 1 0.143348 0.44314 0.039363
101 2 0.270327 0.0446811 0.0668322
95 2 0.0389401 0.140312 0.0834184
62 2 0.198598 0.182242 0.196434
124 2 0.396438 0.118139 0.202203
55 1 0.50083 0.068727 0.245078
54 1 0.458305 0.487429 0.34379
21 2 0.349915 0.490776 0.284094
14 2 0.012462 0.248678 0.250469
68 2 0.17635 0.461556 0.388995
72 2 0.161865 0.392149 0.57346
94 1 0.133608 0.0903054 0.493535
36 2 0.254882 0.0929435 0.525233
146 2 0.443654 0.434353 0.456102
19 1 0.0915233 0.43317 0.478847
20 1 0.364174 0.0536841 0.570424
113 2 0.452434 0.140703 0.576769
79 2 0.0455962 0.113723 0.585764
42 2 0.103279 0.168506 0.405693
127 2 0.251391 0.28106 0.737562
33 1 0.182024 0.37462 0.694205
116 2 0.439665 0.196527 0.767728
112 2 0.0635515 0.377565 0.740572
131 2 0.494621 0.331287 0.633212
56 2 0.242219 0.475998 0.739915
52 1 0.508808 0.209876 0.664498
139 2 0.294633 0.162856 0.899551
117 2 0.388736 0.349285 0.874933
77 1 0.332161 0.0606655 0.959687
110 2 0.122544 0.417979 0.919574
16 1 0.490155 0.419989 0.899557
9 2 0.45145 0.0855344 0.99084
149 2 0.518498 0.495779 0.804275
140 2 0.46078 0.489279 0.999973
34 1 0.337705 0.248184 0.820438
83 1 0.43524 0.751704 0.120674
65 1 0.353485 0.54851 0.0231154
104 2 0.375913 0.64447 0.0981837
138 2 0.352668 0.832672 0.167611
148 2 0.069878 0.540399 0.0692836
142 2 0.495351 0.778563 0.0150991
96 1 0.242453 0.543138 0.319427
78 1 0.277204 0.868166 0.259815
118 2 0.333226 0.829191 0.365928
125 2 0.468969 0.966489 0.311292
115 2 0.166582 0.583078 0.23183
87 2 0.163343 0.817676 0.256734
121 2 0.520215 0.735124 0.214243
61 2 0.499355 0.603897 0.359845
39 2 0.259119 0.991342 0.262447
92 1 0.0380624 0.799123 0.269192
102 2 0.0266731 0.795476 0.394417
58 1 0.444455 0.889873 0.406349
89 1 0.0493498 0.579385 0.186873
137 2 0.531484 0.801452 0.402497
132 2 0.274296 0.639132 0.39524
90 2 0.191917 0.792293 0.504028
80 1 0.293736 0.742122 0.459067
67 1 0.0833549 0.850326 0.492038
41 2 0.382744 0.740406 0.54563
12 2 0.108 0.970182 0.461969
44 2 0.409167 0.959251 0.501677
24 2 0.0168099 0.844003 0.596159
120 2 0.421276 0.829002 0.729446
75 1 0.419142 0.72049 0.665092
28 2 0.329505 0.654118 0.717294
48 1 0.403888 0.946371 0.772108
49 2 0.519405 0.993529 0.788108
97 1 0.260832 0.587381 0.794367
136 2 0.52435 0.659053 0.682733
133 2 0.346237 0.00920995 0.683489
37 2 0.316334 0.584443 0.906919
108 2 0.343512 0.96107 0.88192
15 2 0.146605 0.634903 0.809492
25 1 0.958783 0.0613957 0.0318386
109 2 0.662337 0.390561 0.122983
11 1 0.566666 0.0942219 0.0387744
99 2 0.56845 0.0321935 0.146811
135 2 0.870138 0.0260335 0.118157
74 2 0.5931 0.21161 0.0682561
63 1 0.657567 0.311343 0.0280984
126 2 0.734661 0.490428 0.285446
51 2 0.558239 0.147906 0.320673
88 2 0.698083 0.289389 0.300772
84 1 0.641794 0.215705 0.38418
17 1 0.663662 0.396315 0.246663
122 2 0.546948 0.423596 0.284722
5 2 0.824859 0.009811 0.31969
93 1 0.010289 0.240286 0.372584
81 2 0.907009 0.173866 0.405051
43 2 0.876746 0.0207428 0.521163
4 2 0.588975 0.292155 0.466427
103 2 0.620803 0.469858 0.548786
129 2 0.716224 0.133599 0.441071
22 1 0.825832 0.0773786 0.422686
7 1 0.532187 0.384978 0.527677
144 2 0.0170958 0.343064 0.439478
2 1 0.724602 0.476692 0.619159
76 2 0.632429 0.191085 0.676539
13 1 0.751155 0.234724 0.687482
23 2 0.741121 0.357578 0.658151
106 2 0.843552 0.179468 0.627095
86 1 0.925679 0.0880972 0.61555
6 2 0.922569 0.019204 0.717941
30 2 0.591526 0.352509 0.929169
111 2 0.937418 0.330811 0.892493
57 1 0.852318 0.240293 0.911147
98 2 0.901701 0.128285 0.941444
123 2 0.640413 0.0550413 0.94685
35 2 0.784035 0.229152 0.807584
85 1 0.0183161 0.416349 0.851473
119 2 0.771498 0.275892 0.997425
145 2 0.880336 0.797659 0.0476347
141 2 0.688648 0.742771 0.0397612
18 1 0.784746 0.759056 0.116271
147 2 0.803942 0.653912 0.179785
53 2 0.770604 0.858113 0.19352
105 2 0.685444 0.676851 0.331201
150 2 0.966109 0.893505 0.232541
82 1 0.781472 0.605997 0.293551
47 1 0.565928 0.704623 0.329308
66 2 0.871085 0.609017 0.37798
8 1 0.854737 0.948122 0.217143
46 2 0.011133 0.695602 0.208473
143 2 0.986686 0.492504 0.244582
91 1 0.906482 0.581246 0.49295
29 2 0.897219 0.691062 0.55338
64 2 0.822181 0.509715 0.550896
134 2 0.0218569 0.534245 0.502669
69 2 0.831484 0.844593 0.678562
27 1 0.587996 0.592497 0.765349
130 2 0.692941 0.548142 0.716043
26 1 0.839495 0.938359 0.760492
114 2 0.967766 0.705313 0.737465
45 1 0.925115 0.771785 0.642443
60 2 0.729785 0.994896 0.77309
59 1 0.630124 0.981567 0.846044
38 1 0.602553 0.760679 0.95161
100 2 0.600088 0.66442 0.869513
3 2 0.877342 0.885296 0.866658
107 2 0.628232 0.864005 0.887706
73 1 0.953099 0.844062 0.9589
1 2 0.980544 0.535813 0.849155
31 2 0.00680325 0.951306 0.996196
10 2 0.0195795 0.744322 0.920496
71 1 0.0251255 0.652277 0.83389
