ITEM: TIMESTEP
2
ITEM: NUMBER OF ATOMS
150
ITEM: BOX BOUNDS pp pp pp
0.0000000000000000e+00 1.3050670676133205e+01
0.0000000000000000e+00 1.3050670676133205e+01
0.0000000000000000e+00 1.3050670676133205e+01
ITEM: ATOMS id type xs ys zs
70 2 0.114666 0.324611 0.105765
128 2 0.276792 0.439437 0.0622757
40 1 0.288205 0.0708481 0.176939
32 1 0.099425 0.208443 0.141981
50 1 0.155446 0.422708 0.0448575
101 2 0.279275 0.0220426 0.0607345
95 2 0.0600775 0.128903 0.0542855
62 2 0.209968 0.166506 0.185212
124 2 0.409128 0.102773 0.195666
55 1 0.517171 0.0539241 0.241125
54 1 0.45853 0.460227 0.344883
21 2 0.348435 0.466131 0.286724
14 2 0.0164567 0.20743 0.234121
68 2 0.205635 0.480658 0.433211
72 2 0.162863 0.34691 0.573757
94 1 0.140389 0.0651713 0.49317
36 2 0.26311 0.0805462 0.510844
146 2 0.4448 0.407416 0.457255
19 1 0.113942 0.409078 0.477244
20 1 0.372848 0.0459543 0.558066
113 2 0.458149 0.133686 0.576367
79 2 0.0593526 0.0942707 0.585799
42 2 0.0999106 0.128132 0.394579
127 2 0.258136 0.267023 0.747951
33 1 0.186291 0.355443 0.695516
116 2 0.444892 0.178666 0.770396
112 2 0.0702507 0.366445 0.744731
131 2 0.499631 0.314693 0.638395
56 2 0.246732 0.461194 0.727903
52 1 0.516131 0.193665 0.668605
139 2 0.306755 0.157257 0.913903
117 2 0.405407 0.340738 0.873466
77 1 0.343369 0.0451296 0.95613
110 2 0.132623 0.396802 0.92515
16 1 0.505287 0.414604 0.896404
9 2 0.462889 0.0588427 0.987366
149 2 0.526694 0.49313 0.801896
140 2 0.474488 0.477145 0.00123484
34 1 0.349501 0.237162 0.828043
83 1 0.438451 0.723056 0.12673
65 1 0.360713 0.522686 0.0261379
104 2 0.374271 0.617598 0.105484
138 2 0.356189 0.805639 0.174965
148 2 0.0959513 0.528846 0.0704012
142 2 0.497007 0.75008 0.0195868
96 1 0.246498 0.526667 0.324691
78 1 0.280542 0.853043 0.261834
118 2 0.339074 0.828478 0.374733
125 2 0.48685 0.946349 0.298208
115 2 0.145403 0.534356 0.25426
87 2 0.166973 0.806205 0.260085
121 2 0.522123 0.70123 0.21821
61 2 0.503494 0.575022 0.367943
39 2 0.26855 0.977029 0.258508
92 1 0.0434391 0.784274 0.266034
102 2 0.0247088 0.783564 0.390527
58 1 0.455865 0.879595 0.398505
89 1 0.0441265 0.558508 0.18098
137 2 0.528852 0.77986 0.400046
132 2 0.291319 0.641328 0.358583
90 2 0.191288 0.755448 0.496302
80 1 0.30289 0.728644 0.447496
67 1 0.0850667 0.824526 0.49207
41 2 0.382016 0.719638 0.543555
12 2 0.122955 0.942139 0.472822
44 2 0.431027 0.958061 0.490127
24 2 0.0216183 0.813705 0.597981
120 2 0.423708 0.819518 0.719399
75 1 0.423339 0.707964 0.662214
28 2 0.342421 0.635966 0.722966
48 1 0.408953 0.935806 0.761938
49 2 0.524886 0.987354 0.771726
97 1 0.270561 0.565084 0.794543
136 2 0.533578 0.653444 0.680306
133 2 0.349965 0.997866 0.671141
37 2 0.322054 0.556709 0.909566
108 2 0.347355 0.955315 0.868957
15 2 0.157471 0.614799 0.815816
25 1 0.974697 0.0474487 0.0136955
109 2 0.669002 0.378136 0.118024
11 1 0.576495 0.0851852 0.0283816
99 2 0.587764 0.0308815 0.140312
135 2 0.894632 0.0209837 0.107835
74 2 0.592364 0.205228 0.0500964
63 1 0.665786 0.301193 0.021923
126 2 0.732228 0.481809 0.280161
51 2 0.56429 0.133449 0.323634
88 2 0.700196 0.278629 0.299133
84 1 0.647844 0.203454 0.38418
17 1 0.666666 0.384391 0.241258
122 2 0.546122 0.401325 0.278045
5 2 0.850061 0.0255075 0.306258
93 1 0.0243748 0.221145 0.356474
81 2 0.915165 0.191534 0.410272
43 2 0.895716 0.0179633 0.50758
4 2 0.596459 0.276754 0.468951
103 2 0.615809 0.45665 0.548607
129 2 0.728666 0.124289 0.436111
22 1 0.845195 0.0863272 0.415275
7 1 0.534331 0.364683 0.530731
144 2 0.0789014 0.326398 0.391237
2 1 0.720815 0.459895 0.616755
76 2 0.638731 0.17088 0.67735
13 1 0.755214 0.219359 0.686498
23 2 0.736803 0.341111 0.656547
106 2 0.854537 0.164079 0.631719
86 1 0.939161 0.0724828 0.613934
6 2 0.924988 0.993372 0.70883
30 2 0.611626 0.354587 0.922579
111 2 0.944184 0.314061 0.896523
57 1 0.857366 0.223288 0.9095
98 2 0.907954 0.109617 0.927581
123 2 0.650771 0.056164 0.931937
35 2 0.789097 0.221111 0.805891
85 1 0.0267128 0.399418 0.857707
119 2 0.778599 0.255925 0.999485
145 2 0.885104 0.790728 0.0483574
141 2 0.693788 0.745638 0.0414588
18 1 0.787954 0.762193 0.120264
147 2 0.803077 0.662097 0.191242
53 2 0.78042 0.865214 0.192618
105 2 0.686162 0.658065 0.345824
150 2 0.977066 0.882985 0.227743
82 1 0.784441 0.594354 0.294539
47 1 0.564774 0.6786 0.335299
66 2 0.880068 0.590055 0.374192
8 1 0.872001 0.950395 0.208737
46 2 0.0232778 0.679647 0.203204
143 2 0.949681 0.48373 0.199028
91 1 0.910436 0.550279 0.488357
29 2 0.916293 0.653407 0.557634
64 2 0.814015 0.488429 0.539791
134 2 0.012194 0.478435 0.498467
69 2 0.836706 0.813653 0.673063
27 1 0.599079 0.589489 0.765125
130 2 0.700736 0.538954 0.712404
26 1 0.844787 0.909053 0.753829
114 2 0.974679 0.680897 0.745058
45 1 0.931554 0.738987 0.644437
60 2 0.73208 0.960704 0.768211
59 1 0.630486 0.973967 0.839093
38 1 0.605313 0.750385 0.954572
100 2 0.617787 0.663713 0.864791
3 2 0.886654 0.86061 0.860987
107 2 0.609905 0.864098 0.899862
73 1 0.960664 0.825798 0.957029
1 2 0.989054 0.519322 0.861952
31 2 0.0187877 0.933791 0.983222
10 2 0.0281554 0.725926 0.927282
71 1 0.0370418 0.634418 0.842763
