ITEM: TIMESTEP
2
ITEM: NUMBER OF ATOMS
150
ITEM: BOX BOUNDS pp pp pp
0.0000000000000000e+00 1.3055117335095030e+01
0.0000000000000000e+00 1.3055117335095030e+01
0.0000000000000000e+00 1.3055117335095030e+01
ITEM: ATOMS id type xs ys zs
70 2 0.0955821 0.375114 0.138305
128 2 0.240059 0.511055 0.091994
40 1 0.249444 0.127734 0.221834
32 1 0.0647869 0.269547 0.194459
50 1 0.121422 0.478985 0.0767878
101 2 0.239817 0.0780718 0.106564
95 2 0.0123679 0.181064 0.122217
62 2 0.171157 0.220397 0.23771
124 2 0.369083 0.160334 0.235846
55 1 0.474485 0.115235 0.284706
54 1 0.432078 0.528547 0.386389
21 2 0.322065 0.528312 0.329804
14 2 0.98351 0.285905 0.286481
68 2 0.149507 0.498361 0.43121
72 2 0.133426 0.420087 0.611984
94 1 0.103872 0.127895 0.532428
36 2 0.225834 0.129478 0.557194
146 2 0.420662 0.477623 0.499802
19 1 0.0648489 0.467852 0.517386
20 1 0.337619 0.0927666 0.596551
113 2 0.426909 0.179517 0.607785
79 2 0.0201383 0.157889 0.622244
42 2 0.0755216 0.20847 0.443192
127 2 0.225752 0.312843 0.78071
33 1 0.154115 0.405426 0.734368
116 2 0.41303 0.225889 0.802456
112 2 0.0362394 0.408589 0.779915
131 2 0.464518 0.366628 0.674755
56 2 0.21262 0.50833 0.775706
52 1 0.481705 0.24431 0.699679
139 2 0.278513 0.200604 0.947432
117 2 0.369864 0.386217 0.907442
77 1 0.305767 0.0902917 0.00136265
110 2 0.0983065 0.452749 0.956699
16 1 0.466426 0.463292 0.92579
9 2 0.426013 0.0971851 0.0367526
149 2 0.489326 0.535795 0.827252
140 2 0.436012 0.527592 0.0288709
34 1 0.316986 0.282551 0.861545
83 1 0.410192 0.789777 0.152342
65 1 0.328789 0.586147 0.0504938
104 2 0.354159 0.682077 0.12481
138 2 0.324764 0.869773 0.198564
148 2 0.0504395 0.57805 0.10688
142 2 0.473591 0.824757 0.0500957
96 1 0.213971 0.579198 0.363393
78 1 0.254536 0.908913 0.293443
118 2 0.316078 0.866825 0.400043
125 2 0.448646 0.00418109 0.335737
115 2 0.142845 0.623873 0.273141
87 2 0.142485 0.857213 0.294663
121 2 0.491483 0.771422 0.246987
61 2 0.471194 0.646585 0.398784
39 2 0.235319 0.0320771 0.301776
92 1 0.0192543 0.837225 0.308727
102 2 0.00941794 0.830742 0.433515
58 1 0.426339 0.929332 0.432721
89 1 0.0261826 0.619152 0.223332
137 2 0.513097 0.841639 0.433634
132 2 0.245164 0.680599 0.433239
90 2 0.175261 0.8379 0.543262
80 1 0.274819 0.784692 0.492617
67 1 0.0620113 0.888883 0.530525
41 2 0.362168 0.784351 0.58121
12 2 0.0774748 0.00952491 0.499687
44 2 0.384338 0.0024346 0.523505
24 2 0.995406 0.875021 0.633923
120 2 0.387205 0.862677 0.772544
75 1 0.393879 0.76044 0.700508
28 2 0.30684 0.682509 0.74344
48 1 0.373615 0.981758 0.807814
49 2 0.49131 0.0230241 0.828489
97 1 0.233704 0.621459 0.822744
136 2 0.503972 0.705504 0.719712
133 2 0.323627 0.0428136 0.71056
37 2 0.290103 0.620612 0.934617
108 2 0.306554 0.00257886 0.911381
15 2 0.120523 0.672217 0.8354
25 1 0.932546 0.098026 0.0721334
109 2 0.617318 0.41588 0.157359
11 1 0.541667 0.128705 0.0718252
99 2 0.55508 0.0965044 0.191494
135 2 0.848616 0.0594773 0.159003
74 2 0.550949 0.251788 0.0667617
63 1 0.624417 0.351542 0.0523669
126 2 0.713047 0.517283 0.306545
51 2 0.515664 0.191077 0.373257
88 2 0.658564 0.320955 0.336505
84 1 0.606709 0.254975 0.429527
17 1 0.631283 0.428856 0.279283
122 2 0.521032 0.467154 0.325584
5 2 0.794692 0.0439862 0.362188
93 1 0.975666 0.278319 0.408901
81 2 0.873174 0.215226 0.439598
43 2 0.850539 0.0647327 0.557783
4 2 0.566498 0.336908 0.512983
103 2 0.59236 0.512591 0.597371
129 2 0.683834 0.173252 0.483278
22 1 0.794372 0.120449 0.460916
7 1 0.505266 0.427445 0.574593
144 2 0.985963 0.383035 0.472279
2 1 0.69785 0.513803 0.66499
76 2 0.60449 0.228691 0.714972
13 1 0.72091 0.273994 0.73084
23 2 0.715957 0.396563 0.704437
106 2 0.81576 0.222718 0.666859
86 1 0.90092 0.132165 0.65195
6 2 0.895682 0.0607925 0.753294
30 2 0.576285 0.411169 0.953656
111 2 0.910724 0.366517 0.934419
57 1 0.825954 0.275107 0.951385
98 2 0.877747 0.164833 0.980376
123 2 0.615447 0.0772145 0.985725
35 2 0.755468 0.261113 0.849492
85 1 0.991425 0.450449 0.88923
119 2 0.741467 0.312057 0.0365483
145 2 0.859737 0.832319 0.0844211
141 2 0.665724 0.780022 0.0790835
18 1 0.764227 0.792929 0.154394
147 2 0.782771 0.686514 0.215106
53 2 0.745945 0.892275 0.230101
105 2 0.657682 0.705538 0.359325
150 2 0.940602 0.928041 0.273579
82 1 0.756461 0.632161 0.32445
47 1 0.54041 0.743615 0.360188
66 2 0.837308 0.63594 0.417507
8 1 0.827963 0.983154 0.257733
46 2 0.986186 0.735142 0.246838
143 2 0.963917 0.531325 0.28141
91 1 0.8757 0.61855 0.533971
29 2 0.864478 0.730506 0.588121
64 2 0.791727 0.548195 0.593493
134 2 0.98951 0.565611 0.547669
69 2 0.8081 0.885075 0.713691
27 1 0.56315 0.634608 0.804137
130 2 0.67128 0.592617 0.758558
26 1 0.812817 0.978085 0.796751
114 2 0.939739 0.737869 0.770845
45 1 0.898388 0.808553 0.676938
60 2 0.701637 0.0332684 0.807194
59 1 0.604263 0.0107037 0.880473
38 1 0.580551 0.794926 0.989203
100 2 0.569771 0.695966 0.913505
3 2 0.855782 0.924633 0.901414
107 2 0.613271 0.890098 0.915661
73 1 0.930814 0.880775 0.99332
1 2 0.956202 0.571546 0.889605
31 2 0.983816 0.988493 0.0333885
10 2 0.994723 0.780707 0.953245
71 1 0.000833639 0.688228 0.868353
