ITEM: TIMESTEP
2
ITEM: NUMBER OF ATOMS
150
ITEM: BOX BOUNDS pp pp pp
0.0000000000000000e+00 1.3043828886058545e+01
0.0000000000000000e+00 1.3043828886058545e+01
0.0000000000000000e+00 1.3043828886058545e+01
ITEM: ATOMS id type xs ys zs
70 2 0.149972 0.408011 0.20502
128 2 0.303025 0.536398 0.15119
40 1 0.301435 0.153769 0.280445
32 1 0.116526 0.299139 0.254492
50 1 0.183124 0.506859 0.137949
101 2 0.295881 0.110003 0.162681
95 2 0.0699512 0.213326 0.175813
62 2 0.218982 0.242814 0.299893
124 2 0.420168 0.188306 0.298599
55 1 0.527744 0.144367 0.344468
54 1 0.47523 0.554265 0.441138
21 2 0.363512 0.564928 0.388542
14 2 0.0338272 0.317269 0.34516
68 2 0.202045 0.53567 0.511993
72 2 0.177243 0.436764 0.677997
94 1 0.151896 0.154673 0.591597
36 2 0.274492 0.149263 0.616719
146 2 0.463746 0.496583 0.551816
19 1 0.112523 0.495581 0.588343
20 1 0.389188 0.119322 0.656515
113 2 0.476546 0.20854 0.669419
79 2 0.0681013 0.182377 0.682447
42 2 0.127046 0.239085 0.503934
127 2 0.278175 0.350267 0.847385
33 1 0.203064 0.438144 0.799657
116 2 0.463005 0.260671 0.862724
112 2 0.0858748 0.444026 0.845201
131 2 0.514142 0.397017 0.731147
56 2 0.2575 0.547355 0.831512
52 1 0.532131 0.275649 0.759902
139 2 0.337098 0.241339 0.0133967
117 2 0.432748 0.425564 0.964172
77 1 0.363407 0.127303 0.0592817
110 2 0.157574 0.475466 0.0198119
16 1 0.529143 0.505571 0.977209
9 2 0.482322 0.132031 0.0999125
149 2 0.554418 0.576764 0.877506
140 2 0.491636 0.580607 0.0705126
34 1 0.372448 0.322225 0.925189
83 1 0.469871 0.813651 0.212225
65 1 0.379069 0.62319 0.104813
104 2 0.396083 0.715562 0.186968
138 2 0.3934 0.902988 0.257866
148 2 0.111484 0.608357 0.157994
142 2 0.530659 0.836233 0.10502
96 1 0.255151 0.610919 0.429571
78 1 0.30939 0.932374 0.344779
118 2 0.365344 0.897072 0.457598
125 2 0.503101 0.0337741 0.397172
115 2 0.170393 0.628776 0.341448
87 2 0.19993 0.875574 0.333389
121 2 0.552468 0.792221 0.305618
61 2 0.523682 0.669382 0.457248
39 2 0.285561 0.0534536 0.354188
92 1 0.0755332 0.862488 0.351095
102 2 0.064938 0.855948 0.47601
58 1 0.477129 0.957711 0.491619
89 1 0.0650366 0.640184 0.271096
137 2 0.561909 0.86758 0.491445
132 2 0.289465 0.715727 0.491335
90 2 0.219707 0.873138 0.597691
80 1 0.32119 0.818427 0.552367
67 1 0.10386 0.917604 0.577482
41 2 0.409244 0.812696 0.639856
12 2 0.117504 0.0392612 0.553371
44 2 0.439113 0.0267029 0.58703
24 2 0.0283827 0.898137 0.673401
120 2 0.448054 0.897924 0.827852
75 1 0.452919 0.794511 0.756713
28 2 0.372951 0.713774 0.808606
48 1 0.430835 0.0152752 0.86702
49 2 0.546003 0.0622747 0.887856
97 1 0.284267 0.660651 0.877423
136 2 0.568545 0.748659 0.765969
133 2 0.37547 0.0724233 0.77134
37 2 0.323799 0.656305 0.996532
108 2 0.363863 0.0398425 0.969998
15 2 0.177859 0.725295 0.873048
25 1 0.986567 0.135384 0.12565
109 2 0.677368 0.459252 0.217488
11 1 0.596504 0.170889 0.13367
99 2 0.612068 0.135712 0.252775
135 2 0.904844 0.0966494 0.213995
74 2 0.603172 0.294643 0.130364
63 1 0.681013 0.391713 0.113827
126 2 0.757971 0.551567 0.379387
51 2 0.563322 0.221027 0.434539
88 2 0.708207 0.351186 0.391646
84 1 0.659417 0.282125 0.484162
17 1 0.680639 0.462654 0.341475
122 2 0.563605 0.490469 0.380267
5 2 0.860782 0.0731111 0.41487
93 1 0.0281839 0.309234 0.468322
81 2 0.928924 0.242908 0.501924
43 2 0.896505 0.0905329 0.61795
4 2 0.619548 0.363607 0.569458
103 2 0.6333 0.543588 0.652738
129 2 0.737226 0.195022 0.527311
22 1 0.850991 0.145881 0.515291
7 1 0.551983 0.452972 0.627077
144 2 0.0366073 0.415219 0.531297
2 1 0.746159 0.540521 0.708201
76 2 0.655082 0.258415 0.775999
13 1 0.771956 0.305212 0.789253
23 2 0.760499 0.424658 0.752613
106 2 0.866752 0.248561 0.729192
86 1 0.94984 0.155769 0.712573
6 2 0.947665 0.0821772 0.812779
30 2 0.635211 0.449374 0.0123721
111 2 0.960478 0.412188 0.996807
57 1 0.878583 0.317471 0.0109876
98 2 0.93089 0.206894 0.0388896
123 2 0.668836 0.12232 0.0448106
35 2 0.808019 0.305755 0.908668
85 1 0.0497578 0.489103 0.955827
119 2 0.796411 0.347377 0.100092
145 2 0.920757 0.859389 0.136767
141 2 0.726713 0.810929 0.127626
18 1 0.822668 0.824148 0.205977
147 2 0.830774 0.721614 0.274931
53 2 0.810714 0.924385 0.282068
105 2 0.714857 0.735395 0.429811
150 2 0.00563425 0.961644 0.320115
82 1 0.812771 0.663688 0.384035
47 1 0.595343 0.767272 0.423183
66 2 0.90405 0.667422 0.468276
8 1 0.892085 0.0157056 0.309
46 2 0.0379353 0.760635 0.292039
143 2 0.97823 0.559881 0.300314
91 1 0.924957 0.639363 0.587294
29 2 0.90059 0.744781 0.649531
64 2 0.83825 0.558923 0.627481
134 2 0.0396109 0.595694 0.61362
69 2 0.850499 0.910378 0.771265
27 1 0.629021 0.674251 0.846643
130 2 0.734329 0.627222 0.798258
26 1 0.861329 0.00247175 0.854515
114 2 0.986028 0.770329 0.825211
45 1 0.93726 0.832149 0.728328
60 2 0.75636 0.0675557 0.868843
59 1 0.657917 0.051699 0.942599
38 1 0.638863 0.826265 0.0409759
100 2 0.639723 0.736592 0.954756
3 2 0.902211 0.950348 0.959805
107 2 0.662263 0.93266 0.980493
73 1 0.986268 0.915675 0.0467329
1 2 0.029968 0.61324 0.947967
31 2 0.033053 0.0256225 0.084512
10 2 0.0586114 0.825882 4.95419e-05
71 1 0.0607596 0.731876 0.916913
