ITEM: TIMESTEP
2
ITEM: NUMBER OF ATOMS
150
ITEM: BOX BOUNDS pp pp pp
0.0000000000000000e+00 1.3008220350133481e+01
0.0000000000000000e+00 1.3008220350133481e+01
0.0000000000000000e+00 1.3008220350133481e+01
ITEM: ATOMS id type xs ys zs
70 2 0.0399467 0.225615 0.0124222
128 2 0.186793 0.369164 0.990224
40 1 0.209478 0.997678 0.1084
32 1 0.0156042 0.128377 0.086659
50 1 0.0664084 0.339645 0.969668
101 2 0.205687 0.963801 0.986969
95 2 0.961512 0.0281978 0.0314773
62 2 0.124396 0.0838688 0.128188
124 2 0.325394 0.0334306 0.139187
55 1 0.436468 0.992863 0.181075
54 1 0.392947 0.384836 0.263126
21 2 0.280362 0.384919 0.210923
14 2 0.952968 0.175149 0.183506
68 2 0.11029 0.361808 0.313939
72 2 0.106198 0.319004 0.502817
94 1 0.0739798 0.00403537 0.42214
36 2 0.196412 0.0166267 0.447239
146 2 0.406229 0.34537 0.381092
19 1 0.0296611 0.353752 0.408481
20 1 0.306888 0.973602 0.488763
113 2 0.405195 0.0525894 0.492888
79 2 0.989618 0.0270183 0.514391
42 2 0.0335073 0.0827913 0.334985
127 2 0.217039 0.18891 0.644215
33 1 0.136151 0.282453 0.618541
116 2 0.401067 0.101696 0.683859
112 2 0.0199519 0.266864 0.66696
131 2 0.447611 0.244858 0.552051
56 2 0.191412 0.381631 0.675036
52 1 0.464888 0.122997 0.57805
139 2 0.247291 0.0814829 0.818256
117 2 0.350236 0.259754 0.7875
77 1 0.274586 0.977491 0.884197
110 2 0.0511784 0.334294 0.845669
16 1 0.433774 0.346733 0.822861
9 2 0.390488 0.997485 0.929012
149 2 0.459605 0.437751 0.739655
140 2 0.387626 0.397035 0.928752
34 1 0.299758 0.157489 0.733914
83 1 0.358191 0.649928 0.0511915
65 1 0.277858 0.449239 0.960172
104 2 0.300692 0.538518 0.0464903
138 2 0.27588 0.740125 0.0805883
148 2 0.984047 0.428016 0.00906998
142 2 0.420887 0.668008 0.944804
96 1 0.173502 0.44007 0.242079
78 1 0.20857 0.773395 0.179721
118 2 0.27229 0.735666 0.287837
125 2 0.411761 0.881992 0.236983
115 2 0.0936034 0.481128 0.157132
87 2 0.0990444 0.717115 0.192328
121 2 0.441161 0.647885 0.144665
61 2 0.433146 0.503379 0.272684
39 2 0.187626 0.894913 0.177125
92 1 0.972629 0.705479 0.195614
102 2 0.95302 0.71393 0.31963
58 1 0.380819 0.801077 0.327213
89 1 0.968769 0.475193 0.125512
137 2 0.461005 0.706106 0.329693
132 2 0.203732 0.538577 0.316891
90 2 0.125947 0.696043 0.423267
80 1 0.229238 0.644356 0.376001
67 1 0.0186756 0.762486 0.415295
41 2 0.314682 0.637956 0.466934
12 2 0.0519072 0.881973 0.391057
44 2 0.341937 0.870672 0.42287
24 2 0.956396 0.764199 0.524138
120 2 0.352321 0.748629 0.648324
75 1 0.352623 0.63817 0.587687
28 2 0.272537 0.568627 0.655044
48 1 0.346234 0.864834 0.694406
49 2 0.464606 0.901098 0.718069
97 1 0.19923 0.496477 0.726126
136 2 0.467071 0.588528 0.60024
133 2 0.288429 0.932062 0.6058
37 2 0.2385 0.496165 0.846841
108 2 0.285415 0.883339 0.802529
15 2 0.080592 0.535194 0.714163
25 1 0.889944 0.949683 0.962357
109 2 0.625163 0.313588 0.0439838
11 1 0.503371 0.0343294 0.969385
99 2 0.51568 0.984283 0.0841818
135 2 0.791867 0.914562 0.0358548
74 2 0.515865 0.157305 0.980106
63 1 0.604328 0.240701 0.944816
126 2 0.661812 0.38855 0.22737
51 2 0.478015 0.0750986 0.264506
88 2 0.623965 0.18775 0.205837
84 1 0.584216 0.125331 0.307691
17 1 0.597677 0.303179 0.164465
122 2 0.476635 0.326267 0.190591
5 2 0.766106 0.910259 0.243658
93 1 0.937919 0.163113 0.306105
81 2 0.832455 0.0944761 0.32157
43 2 0.819144 0.938259 0.443297
4 2 0.565155 0.215042 0.393634
103 2 0.573673 0.394245 0.490323
129 2 0.64783 0.0283841 0.354267
22 1 0.765461 0.988239 0.341371
7 1 0.497849 0.303805 0.453783
144 2 0.949948 0.260025 0.382867
2 1 0.672838 0.39419 0.568195
76 2 0.588209 0.105295 0.584452
13 1 0.701892 0.15014 0.614804
23 2 0.687437 0.274608 0.603456
106 2 0.798129 0.104701 0.549231
86 1 0.869949 0.00170103 0.541145
6 2 0.84788 0.938905 0.647111
30 2 0.545527 0.295852 0.849195
111 2 0.878591 0.227411 0.810129
57 1 0.794902 0.137111 0.837573
98 2 0.846035 0.0279426 0.872987
123 2 0.576707 0.994784 0.876367
35 2 0.726951 0.122064 0.73349
85 1 0.956131 0.313883 0.764681
119 2 0.712701 0.184728 0.91913
145 2 0.815991 0.68722 0.96658
141 2 0.619866 0.646048 0.976937
18 1 0.724652 0.648988 0.0452442
147 2 0.734921 0.538558 0.102899
53 2 0.72028 0.742354 0.130126
105 2 0.612967 0.583835 0.248434
150 2 0.910041 0.801921 0.146117
82 1 0.707828 0.504227 0.220744
47 1 0.493145 0.611123 0.253659
66 2 0.787199 0.517563 0.31384
8 1 0.790532 0.845292 0.140576
46 2 0.93628 0.596954 0.144754
143 2 0.91216 0.393079 0.196594
91 1 0.83939 0.500501 0.424622
29 2 0.839402 0.614766 0.473562
64 2 0.770808 0.428776 0.500851
134 2 0.957633 0.456347 0.42376
69 2 0.769195 0.759757 0.605325
27 1 0.531542 0.530961 0.691252
130 2 0.639093 0.477631 0.655402
26 1 0.777997 0.847133 0.694673
114 2 0.900175 0.609404 0.655492
45 1 0.864487 0.689913 0.567436
60 2 0.668116 0.8874 0.731997
59 1 0.563231 0.899927 0.795631
38 1 0.534218 0.677259 0.891724
100 2 0.545242 0.613503 0.78483
3 2 0.834124 0.783525 0.78597
107 2 0.549816 0.797919 0.866216
73 1 0.897148 0.732846 0.881922
1 2 0.91016 0.431262 0.753946
31 2 0.94585 0.840974 0.928109
10 2 0.959676 0.632531 0.839748
71 1 0.959416 0.547563 0.745712
