ITEM: TIMESTEP
2
ITEM: NUMBER OF ATOMS
150
ITEM: BOX BOUNDS pp pp pp
0.0000000000000000e+00 1.3050201909343599e+01
0.0000000000000000e+00 1.3050201909343599e+01
0.0000000000000000e+00 1.3050201909343599e+01
ITEM: ATOMS id type xs ys zs
70 2 0.118043 0.356268 0.122713
128 2 0.267375 0.489949 0.0778616
40 1 0.277509 0.102947 0.197536
32 1 0.0914602 0.245302 0.171826
50 1 0.148737 0.458052 0.0584816
101 2 0.265716 0.0550008 0.0817273
95 2 0.0453077 0.157669 0.0941468
62 2 0.198604 0.19569 0.213804
124 2 0.397372 0.136029 0.212402
55 1 0.504864 0.0918098 0.258698
54 1 0.457063 0.501888 0.365502
21 2 0.349528 0.512036 0.30501
14 2 0.00970393 0.255254 0.264802
68 2 0.177259 0.480937 0.413363
72 2 0.160313 0.3992 0.591983
94 1 0.132756 0.107266 0.511672
36 2 0.255108 0.105088 0.537193
146 2 0.442501 0.449311 0.478198
19 1 0.0922994 0.44875 0.498533
20 1 0.364873 0.0662638 0.58168
113 2 0.452813 0.153838 0.595949
79 2 0.0462191 0.12789 0.602104
42 2 0.104144 0.193406 0.427457
127 2 0.256298 0.290567 0.753814
33 1 0.179701 0.381835 0.713834
116 2 0.443114 0.205395 0.786512
112 2 0.0629267 0.380644 0.761712
131 2 0.493426 0.345215 0.655232
56 2 0.232509 0.487199 0.756779
52 1 0.510299 0.223249 0.68273
139 2 0.300374 0.177452 0.921965
117 2 0.396233 0.364565 0.888565
77 1 0.329882 0.0679078 0.976133
110 2 0.124487 0.429278 0.93989
16 1 0.493451 0.441826 0.907827
9 2 0.450899 0.0774172 0.0101289
149 2 0.518271 0.516959 0.811111
140 2 0.462286 0.513784 0.00556841
34 1 0.343413 0.261291 0.83956
83 1 0.439484 0.765938 0.135161
65 1 0.352353 0.567772 0.0314325
104 2 0.371076 0.664694 0.107804
138 2 0.361068 0.853458 0.180269
148 2 0.0752218 0.558024 0.0797544
142 2 0.501155 0.790494 0.0293074
96 1 0.240483 0.559415 0.341553
78 1 0.280719 0.885014 0.269833
118 2 0.34105 0.845902 0.378386
125 2 0.47774 0.985813 0.318603
115 2 0.165794 0.593204 0.249546
87 2 0.168834 0.833081 0.268175
121 2 0.520946 0.746293 0.22885
61 2 0.501274 0.618794 0.379573
39 2 0.262573 0.00694607 0.276743
92 1 0.0447684 0.814635 0.282946
102 2 0.0344174 0.810182 0.40804
58 1 0.451314 0.909237 0.412269
89 1 0.0497849 0.593817 0.197512
137 2 0.535581 0.818793 0.41449
132 2 0.27054 0.659803 0.413379
90 2 0.199476 0.819748 0.51949
80 1 0.300005 0.764604 0.472188
67 1 0.0856198 0.870993 0.504756
41 2 0.389854 0.760728 0.557946
12 2 0.105055 0.990565 0.473498
44 2 0.41273 0.976227 0.508803
24 2 0.0159389 0.859152 0.606512
120 2 0.416397 0.837902 0.748561
75 1 0.425688 0.735867 0.675823
28 2 0.340351 0.655443 0.720233
48 1 0.400856 0.955544 0.788318
49 2 0.517124 0.00142717 0.803424
97 1 0.26122 0.600551 0.799359
136 2 0.537917 0.683879 0.692866
133 2 0.345803 0.0168838 0.694825
37 2 0.308832 0.593906 0.91553
108 2 0.333792 0.975674 0.892014
15 2 0.152182 0.660975 0.806486
25 1 0.961463 0.0799677 0.0441957
109 2 0.650073 0.400701 0.139141
11 1 0.566837 0.108007 0.0455262
99 2 0.581528 0.0682268 0.16306
135 2 0.877617 0.0426097 0.131474
74 2 0.578588 0.230834 0.0549819
63 1 0.652657 0.329776 0.0372106
126 2 0.735247 0.505622 0.292604
51 2 0.553219 0.168111 0.342766
88 2 0.695097 0.303863 0.31932
84 1 0.640899 0.230131 0.405755
17 1 0.661266 0.410869 0.262748
122 2 0.5468 0.436561 0.309121
5 2 0.831176 0.0240673 0.335213
93 1 0.00283903 0.258831 0.388479
81 2 0.904476 0.191022 0.422565
43 2 0.877044 0.034828 0.537126
4 2 0.589163 0.305961 0.489866
103 2 0.619179 0.485796 0.571066
129 2 0.715232 0.144344 0.45732
22 1 0.827386 0.0934268 0.438405
7 1 0.531066 0.400001 0.550022
144 2 0.0129966 0.364533 0.45205
2 1 0.726422 0.49057 0.637454
76 2 0.633548 0.206383 0.692643
13 1 0.750578 0.251449 0.705264
23 2 0.744802 0.372184 0.672668
106 2 0.844131 0.195712 0.642951
86 1 0.92771 0.102689 0.631352
6 2 0.921975 0.0331341 0.734326
30 2 0.599849 0.382888 0.937159
111 2 0.934715 0.351595 0.915154
57 1 0.851236 0.258302 0.929919
98 2 0.905818 0.148902 0.956345
123 2 0.641519 0.064799 0.956812
35 2 0.784138 0.247034 0.825307
85 1 0.0201254 0.430091 0.868968
119 2 0.768669 0.287881 0.0186335
145 2 0.894357 0.811041 0.0605052
141 2 0.697907 0.764024 0.0508908
18 1 0.795478 0.775285 0.127291
147 2 0.811476 0.669092 0.189292
53 2 0.78101 0.873625 0.204659
105 2 0.686609 0.69229 0.337687
150 2 0.97407 0.91052 0.246473
82 1 0.784764 0.619757 0.300625
47 1 0.566482 0.719901 0.344051
66 2 0.871454 0.623724 0.388738
8 1 0.861809 0.966258 0.22953
46 2 0.0161905 0.712069 0.219763
143 2 0.984303 0.505841 0.250809
91 1 0.904889 0.599663 0.50615
29 2 0.89142 0.710954 0.560573
64 2 0.819695 0.529274 0.565877
134 2 0.0184831 0.548521 0.524724
69 2 0.830475 0.857925 0.692971
27 1 0.593878 0.612607 0.779914
130 2 0.699809 0.562956 0.736343
26 1 0.837937 0.951276 0.775007
114 2 0.966504 0.716258 0.742778
45 1 0.923107 0.787711 0.650558
60 2 0.728857 0.00934057 0.78201
59 1 0.630572 0.993508 0.855108
38 1 0.608273 0.775014 0.965861
100 2 0.602611 0.680688 0.884563
3 2 0.874698 0.897358 0.880984
107 2 0.633267 0.876182 0.898031
73 1 0.959093 0.861097 0.967374
1 2 0.992121 0.552747 0.859304
31 2 0.00773172 0.971329 0.0021219
10 2 0.0262717 0.766837 0.921352
71 1 0.0316843 0.671486 0.839057
