ITEM: TIMESTEP
2
ITEM: NUMBER OF ATOMS
150
ITEM: BOX BOUNDS pp pp pp
0.0000000000000000e+00 1.3045453432998080e+01
0.0000000000000000e+00 1.3045453432998080e+01
0.0000000000000000e+00 1.3045453432998080e+01
ITEM: ATOMS id type xs ys zs
70 2 0.0441472 0.302985 0.0144455
128 2 0.174054 0.449611 0.973086
40 1 0.219964 0.051286 0.102697
32 1 0.032402 0.199318 0.0809261
50 1 0.0556632 0.414255 0.959815
101 2 0.218672 0.994302 0.988895
95 2 0.969969 0.104111 0.0269887
62 2 0.146367 0.150681 0.102395
124 2 0.341216 0.0768143 0.11966
55 1 0.442421 0.0120964 0.156016
54 1 0.371073 0.445967 0.265868
21 2 0.259353 0.438451 0.211923
14 2 0.972932 0.232458 0.185198
68 2 0.0963013 0.404897 0.327734
72 2 0.0888725 0.342702 0.510062
94 1 0.0710687 0.058007 0.433916
36 2 0.187349 0.0634996 0.476247
146 2 0.367501 0.390202 0.378102
19 1 0.0141095 0.378107 0.417452
20 1 0.294178 0.00424238 0.499406
113 2 0.393141 0.0795684 0.506688
79 2 0.971138 0.0749491 0.508883
42 2 0.0535029 0.142614 0.344817
127 2 0.154025 0.243568 0.677251
33 1 0.0944862 0.344151 0.633606
116 2 0.348936 0.158436 0.678776
112 2 0.972098 0.361409 0.661514
131 2 0.430238 0.280024 0.546474
56 2 0.157218 0.442599 0.677781
52 1 0.437465 0.162071 0.590372
139 2 0.214905 0.0894961 0.806587
117 2 0.296545 0.286121 0.813508
77 1 0.27096 0.0012908 0.875356
110 2 0.0265193 0.392475 0.841131
16 1 0.402489 0.350138 0.835025
9 2 0.389504 0.0382509 0.899051
149 2 0.429902 0.425108 0.739533
140 2 0.379348 0.421615 0.935519
34 1 0.246591 0.193152 0.743687
83 1 0.368772 0.703447 0.0447546
65 1 0.283976 0.500834 0.94803
104 2 0.31096 0.593436 0.0274234
138 2 0.281767 0.785456 0.0859624
148 2 0.98155 0.510751 0.991478
142 2 0.424577 0.730314 0.935722
96 1 0.149631 0.484178 0.2493
78 1 0.202026 0.829514 0.171302
118 2 0.25464 0.779383 0.280918
125 2 0.40071 0.920194 0.231904
115 2 0.0621573 0.517127 0.167622
87 2 0.0837875 0.792264 0.165703
121 2 0.452212 0.696249 0.139841
61 2 0.409339 0.564914 0.279342
39 2 0.198204 0.954379 0.182267
92 1 0.957206 0.778411 0.177509
102 2 0.945507 0.790685 0.302077
58 1 0.359947 0.844753 0.322128
89 1 0.951592 0.543724 0.109652
137 2 0.444578 0.755729 0.335542
132 2 0.179115 0.590883 0.311716
90 2 0.110692 0.756053 0.414229
80 1 0.208162 0.694844 0.371562
67 1 0.0117549 0.829912 0.399859
41 2 0.289065 0.687518 0.465638
12 2 0.0593224 0.943447 0.382763
44 2 0.321693 0.911676 0.418429
24 2 0.951731 0.823604 0.507422
120 2 0.357485 0.771937 0.643537
75 1 0.329007 0.665346 0.582757
28 2 0.229106 0.621092 0.642485
48 1 0.337324 0.885339 0.691959
49 2 0.447495 0.945544 0.700548
97 1 0.187998 0.549133 0.734349
136 2 0.417562 0.580314 0.607933
133 2 0.271946 0.949897 0.609245
37 2 0.268567 0.542419 0.8293
108 2 0.282381 0.897975 0.803735
15 2 0.0835867 0.596808 0.782698
25 1 0.883226 0.0426849 0.960776
109 2 0.562689 0.337872 0.0386794
11 1 0.504462 0.02967 0.949951
99 2 0.490698 0.958724 0.0529667
135 2 0.787692 0.0150525 0.0393422
74 2 0.539723 0.1401 0.995514
63 1 0.578203 0.25113 0.952664
126 2 0.637085 0.467291 0.17752
51 2 0.518058 0.0886133 0.21872
88 2 0.620866 0.260589 0.215167
84 1 0.57744 0.171583 0.291951
17 1 0.574102 0.362348 0.158699
122 2 0.459574 0.383899 0.204844
5 2 0.744661 0.968714 0.237895
93 1 0.949986 0.199557 0.301588
81 2 0.863642 0.111233 0.305897
43 2 0.808147 0.979759 0.439461
4 2 0.501675 0.234584 0.369427
103 2 0.557997 0.409894 0.454337
129 2 0.669443 0.11632 0.356554
22 1 0.766733 0.0398847 0.337852
7 1 0.459826 0.332059 0.43762
144 2 0.930174 0.292762 0.38031
2 1 0.648762 0.424627 0.542402
76 2 0.560449 0.144004 0.607921
13 1 0.677547 0.189004 0.61989
23 2 0.672613 0.308322 0.582473
106 2 0.774248 0.135118 0.56049
86 1 0.854964 0.0419681 0.539364
6 2 0.847452 0.968015 0.639224
30 2 0.502736 0.278311 0.855996
111 2 0.840239 0.328155 0.809508
57 1 0.780224 0.221432 0.834721
98 2 0.847032 0.122161 0.871535
123 2 0.574531 0.985992 0.856292
35 2 0.70865 0.18152 0.740257
85 1 0.925479 0.40849 0.767711
119 2 0.698296 0.24729 0.924351
145 2 0.812095 0.751443 0.968849
141 2 0.619171 0.690854 0.949671
18 1 0.706651 0.726251 0.0322549
147 2 0.722052 0.644638 0.123381
53 2 0.684944 0.83998 0.0839802
105 2 0.602201 0.633357 0.274164
150 2 0.880566 0.865238 0.130257
82 1 0.700001 0.567286 0.219123
47 1 0.484009 0.664646 0.258891
66 2 0.782784 0.556301 0.312849
8 1 0.768028 0.924511 0.124093
46 2 0.933031 0.664685 0.13506
143 2 0.858383 0.470934 0.140079
91 1 0.833394 0.539803 0.426166
29 2 0.850926 0.654199 0.471333
64 2 0.753338 0.479954 0.503159
134 2 0.943255 0.479965 0.433736
69 2 0.790994 0.779342 0.622141
27 1 0.490032 0.525253 0.695324
130 2 0.593449 0.486003 0.636945
26 1 0.766124 0.884748 0.682898
114 2 0.963062 0.669339 0.635965
45 1 0.887103 0.731446 0.559764
60 2 0.649903 0.925146 0.667247
59 1 0.558492 0.919396 0.750845
38 1 0.526512 0.703488 0.866106
100 2 0.507711 0.603128 0.79307
3 2 0.777601 0.862651 0.80496
107 2 0.549867 0.800236 0.790289
73 1 0.86782 0.821131 0.882244
1 2 0.899269 0.53078 0.762388
31 2 0.919999 0.929508 0.918131
10 2 0.936957 0.740577 0.816955
71 1 0.968554 0.636271 0.756168
