ITEM: TIMESTEP
2
ITEM: NUMBER OF ATOMS
150
ITEM: BOX BOUNDS pp pp pp
0.0000000000000000e+00 1.2997771043939672e+01
0.0000000000000000e+00 1.2997771043939672e+01
0.0000000000000000e+00 1.2997771043939672e+01
ITEM: ATOMS id type xs ys zs
70 2 0.199736 0.369853 0.171965
128 2 0.341696 0.507716 0.110788
40 1 0.340949 0.11009 0.255747
32 1 0.159766 0.262237 0.220289
50 1 0.225021 0.465477 0.0964853
101 2 0.3448 0.06749 0.136881
95 2 0.112608 0.177792 0.139155
62 2 0.259857 0.202217 0.266615
124 2 0.458509 0.145343 0.275985
55 1 0.563259 0.0969867 0.324131
54 1 0.531601 0.523197 0.393695
21 2 0.415862 0.516876 0.3464
14 2 0.0783058 0.290999 0.310939
68 2 0.233519 0.481597 0.44654
72 2 0.255999 0.402192 0.627178
94 1 0.188644 0.112719 0.559039
36 2 0.305978 0.113273 0.602809
146 2 0.525909 0.468958 0.507362
19 1 0.169969 0.449324 0.548847
20 1 0.418149 0.0750215 0.643329
113 2 0.506248 0.164115 0.633194
79 2 0.103628 0.145882 0.646229
42 2 0.157189 0.187593 0.463578
127 2 0.334427 0.295487 0.796393
33 1 0.278032 0.397325 0.750287
116 2 0.516902 0.213354 0.823425
112 2 0.16003 0.415032 0.79141
131 2 0.55022 0.354998 0.688452
56 2 0.344617 0.493281 0.79965
52 1 0.573932 0.233071 0.713326
139 2 0.375382 0.186915 0.969888
117 2 0.476092 0.362602 0.941185
77 1 0.414499 0.0866621 0.0346054
110 2 0.190994 0.426901 0.982254
16 1 0.577234 0.435841 0.959669
9 2 0.532607 0.11199 0.0717876
149 2 0.599377 0.509611 0.859219
140 2 0.546739 0.503213 0.0620763
34 1 0.419852 0.265584 0.883542
83 1 0.527127 0.776559 0.187486
65 1 0.445022 0.573853 0.0835373
104 2 0.471496 0.665153 0.165294
138 2 0.43809 0.855742 0.231051
148 2 0.144582 0.559535 0.120209
142 2 0.581208 0.803496 0.0777436
96 1 0.305593 0.561413 0.384342
78 1 0.352145 0.888868 0.315581
118 2 0.401475 0.845368 0.429636
125 2 0.529807 0.996095 0.389188
115 2 0.233123 0.600069 0.29061
87 2 0.237263 0.847592 0.29432
121 2 0.613463 0.771122 0.279085
61 2 0.557569 0.644236 0.413751
39 2 0.327774 0.0108791 0.331555
92 1 0.112347 0.83295 0.308219
102 2 0.0992568 0.821404 0.433756
58 1 0.505273 0.912519 0.478067
89 1 0.121882 0.609776 0.231873
137 2 0.60031 0.833002 0.474846
132 2 0.327733 0.65739 0.463665
90 2 0.252901 0.821143 0.561893
80 1 0.355791 0.762918 0.521959
67 1 0.136758 0.870613 0.543978
41 2 0.448473 0.754914 0.605181
12 2 0.159537 0.993474 0.529795
44 2 0.460406 0.975727 0.575611
24 2 0.0611368 0.848401 0.640132
120 2 0.497738 0.856002 0.791398
75 1 0.491577 0.749904 0.724363
28 2 0.39949 0.686706 0.780498
48 1 0.484194 0.968633 0.845272
49 2 0.60378 0.00650093 0.861377
97 1 0.350974 0.604272 0.85895
136 2 0.598356 0.68728 0.743045
133 2 0.415795 0.032833 0.761204
37 2 0.417357 0.611172 0.965323
108 2 0.427557 0.989308 0.955862
15 2 0.234242 0.63785 0.886715
25 1 0.0425246 0.0884783 0.0841765
109 2 0.749051 0.414662 0.176445
11 1 0.650552 0.112079 0.117225
99 2 0.640986 0.0623283 0.231975
135 2 0.944589 0.0623896 0.160958
74 2 0.6977 0.22724 0.126038
63 1 0.753808 0.331482 0.0831051
126 2 0.829816 0.51139 0.340041
51 2 0.607947 0.190463 0.39168
88 2 0.760368 0.32067 0.359393
84 1 0.704653 0.247867 0.445013
17 1 0.743163 0.431258 0.300371
122 2 0.626799 0.469356 0.332582
5 2 0.88536 0.0410785 0.359501
93 1 0.0651963 0.270724 0.433442
81 2 0.96043 0.206271 0.451226
43 2 0.944282 0.0465445 0.56243
4 2 0.663149 0.3222 0.536064
103 2 0.689695 0.494202 0.630017
129 2 0.774635 0.15306 0.486803
22 1 0.88756 0.10457 0.466327
7 1 0.600175 0.416743 0.591722
144 2 0.0817908 0.367816 0.510772
2 1 0.799249 0.489222 0.693467
76 2 0.694641 0.20218 0.725875
13 1 0.808927 0.246731 0.753713
23 2 0.797455 0.372649 0.74322
106 2 0.900222 0.198192 0.68181
86 1 0.986307 0.107602 0.66557
6 2 0.985464 0.0325275 0.764117
30 2 0.682354 0.371953 0.986783
111 2 0.0131711 0.342964 0.910081
57 1 0.936358 0.253221 0.954468
98 2 0.998154 0.147402 0.98249
123 2 0.716002 0.0522925 0.0300578
35 2 0.846571 0.227709 0.871241
85 1 0.0968787 0.435683 0.897227
119 2 0.872498 0.303665 0.0511398
145 2 0.955151 0.813313 0.0974007
141 2 0.768989 0.737107 0.101481
18 1 0.86073 0.779844 0.174809
147 2 0.890456 0.696569 0.262111
53 2 0.840059 0.891622 0.229341
105 2 0.75423 0.699418 0.420422
150 2 0.0338216 0.925967 0.277434
82 1 0.915519 0.602708 0.342165
47 1 0.640888 0.739068 0.399846
66 2 0.961394 0.616754 0.458222
8 1 0.921561 0.98299 0.255776
46 2 0.0960188 0.731854 0.236928
143 2 0.0232791 0.554857 0.285603
91 1 0.983453 0.578623 0.574937
29 2 0.960604 0.6741 0.651363
64 2 0.902024 0.492759 0.620232
134 2 0.106999 0.551518 0.58629
69 2 0.899962 0.843765 0.763765
27 1 0.662176 0.614742 0.823519
130 2 0.775179 0.581833 0.777161
26 1 0.917903 0.950214 0.828654
114 2 0.068163 0.731064 0.805068
45 1 0.992188 0.774341 0.715574
60 2 0.813657 0.0122733 0.854659
59 1 0.712311 0.990552 0.921803
38 1 0.684811 0.768421 0.0148594
100 2 0.663977 0.6779 0.932494
3 2 0.981206 0.909418 0.927386
107 2 0.723982 0.869321 0.953281
73 1 0.0450321 0.863746 0.025422
1 2 0.0582452 0.5563 0.905341
31 2 0.0932978 0.972811 0.0699479
10 2 0.115417 0.765967 0.989984
71 1 0.11532 0.671607 0.904644
