ITEM: TIMESTEP
2
ITEM: NUMBER OF ATOMS
150
ITEM: BOX BOUNDS pp pp pp
0.0000000000000000e+00 1.3021456574091378e+01
0.0000000000000000e+00 1.3021456574091378e+01
0.0000000000000000e+00 1.3021456574091378e+01
ITEM: ATOMS id type xs ys zs
70 2 0.164133 0.407582 0.233481
128 2 0.323521 0.520031 0.165012
40 1 0.313503 0.146885 0.294413
32 1 0.128346 0.292808 0.266264
50 1 0.200212 0.502761 0.16213
101 2 0.304437 0.0992163 0.177539
95 2 0.0856995 0.213451 0.178504
62 2 0.22953 0.234856 0.313585
124 2 0.434398 0.180277 0.302541
55 1 0.542616 0.138365 0.350668
54 1 0.479555 0.553822 0.454513
21 2 0.366667 0.55897 0.40208
14 2 0.0403186 0.30183 0.353481
68 2 0.228502 0.528618 0.549094
72 2 0.171326 0.422949 0.700685
94 1 0.163553 0.153217 0.604862
36 2 0.286588 0.150342 0.628237
146 2 0.472955 0.499495 0.567479
19 1 0.124654 0.489087 0.605431
20 1 0.400744 0.114099 0.664632
113 2 0.484675 0.205181 0.685153
79 2 0.0782686 0.180174 0.695067
42 2 0.138002 0.236546 0.515974
127 2 0.278561 0.337868 0.865935
33 1 0.20002 0.42572 0.82165
116 2 0.470287 0.257472 0.877479
112 2 0.0853539 0.433313 0.873485
131 2 0.522826 0.395307 0.746236
56 2 0.259081 0.533809 0.850214
52 1 0.540065 0.273535 0.775163
139 2 0.350883 0.231079 0.0302696
117 2 0.43731 0.420339 0.976941
77 1 0.371853 0.113625 0.0726501
110 2 0.158766 0.475587 0.0470928
16 1 0.539235 0.494964 0.987486
9 2 0.492815 0.101382 0.110085
149 2 0.564098 0.568839 0.889322
140 2 0.509264 0.568143 0.0842244
34 1 0.377175 0.314664 0.94092
83 1 0.479636 0.807149 0.225687
65 1 0.396265 0.609631 0.117585
104 2 0.413028 0.703748 0.198571
138 2 0.396908 0.892969 0.269639
148 2 0.144168 0.611299 0.190343
142 2 0.538492 0.832311 0.117676
96 1 0.263082 0.602949 0.456526
78 1 0.316975 0.928383 0.358964
118 2 0.378404 0.89093 0.468164
125 2 0.51627 0.0263805 0.400817
115 2 0.163095 0.612024 0.383723
87 2 0.204733 0.875951 0.357991
121 2 0.563567 0.790334 0.319527
61 2 0.521583 0.671697 0.469201
39 2 0.298783 0.0498585 0.372978
92 1 0.0801869 0.857392 0.374049
102 2 0.0716061 0.851079 0.499663
58 1 0.489496 0.954272 0.497896
89 1 0.075131 0.633131 0.29446
137 2 0.575336 0.865468 0.505121
132 2 0.295397 0.712752 0.508889
90 2 0.235658 0.876045 0.613306
80 1 0.333321 0.816272 0.56489
67 1 0.117053 0.915654 0.597495
41 2 0.421557 0.8047 0.651488
12 2 0.129357 0.0363203 0.569373
44 2 0.451427 0.0241412 0.592131
24 2 0.0457092 0.894741 0.696886
120 2 0.447295 0.88756 0.845773
75 1 0.456314 0.786469 0.771109
28 2 0.376435 0.70177 0.818399
48 1 0.436297 0.00783565 0.8755
49 2 0.552132 0.0559119 0.89208
97 1 0.292221 0.647121 0.892882
136 2 0.573655 0.744829 0.782289
133 2 0.384025 0.0585417 0.774876
37 2 0.340342 0.641015 0.00822492
108 2 0.365259 0.037661 0.974354
15 2 0.183376 0.708977 0.896991
25 1 0.999553 0.132909 0.136684
109 2 0.671137 0.447641 0.22604
11 1 0.602195 0.157645 0.138437
99 2 0.627657 0.133432 0.259082
135 2 0.922789 0.0966009 0.230973
74 2 0.595594 0.282421 0.133122
63 1 0.678658 0.377299 0.124799
126 2 0.762533 0.548914 0.374065
51 2 0.575387 0.210585 0.445961
88 2 0.711762 0.347997 0.403642
84 1 0.666272 0.278188 0.498186
17 1 0.682828 0.457813 0.34916
122 2 0.569786 0.491422 0.394849
5 2 0.868092 0.0805815 0.429737
93 1 0.0396953 0.30591 0.477293
81 2 0.937002 0.249214 0.51651
43 2 0.907409 0.0911533 0.632457
4 2 0.621646 0.359152 0.581463
103 2 0.646127 0.537895 0.666717
129 2 0.746537 0.198824 0.551339
22 1 0.860434 0.151365 0.53272
7 1 0.560289 0.45124 0.64146
144 2 0.0552942 0.415793 0.53215
2 1 0.758024 0.537311 0.724776
76 2 0.663281 0.256001 0.792296
13 1 0.7818 0.300339 0.803212
23 2 0.77369 0.420067 0.765384
106 2 0.879282 0.246033 0.745087
86 1 0.961963 0.152827 0.729317
6 2 0.958293 0.0793248 0.829842
30 2 0.645398 0.437516 0.0200543
111 2 0.964336 0.403896 0.0281829
57 1 0.881061 0.309442 0.0294366
98 2 0.93715 0.199576 0.051129
123 2 0.677877 0.117061 0.0479069
35 2 0.817596 0.301636 0.923008
85 1 0.0500605 0.481429 0.983879
119 2 0.793309 0.329292 0.116489
145 2 0.926509 0.863256 0.151784
141 2 0.73285 0.815495 0.141746
18 1 0.827935 0.830284 0.220947
147 2 0.838237 0.728098 0.290052
53 2 0.81418 0.929851 0.29829
105 2 0.721659 0.724501 0.447471
150 2 0.00608522 0.95319 0.341496
82 1 0.81959 0.658218 0.39147
47 1 0.603536 0.762622 0.438251
66 2 0.913325 0.649014 0.473636
8 1 0.899222 0.0174949 0.326207
46 2 0.0514499 0.755024 0.310842
143 2 0.979316 0.558703 0.291969
91 1 0.937579 0.635189 0.594877
29 2 0.921647 0.746251 0.650794
64 2 0.849482 0.561812 0.644955
134 2 0.0501209 0.589229 0.624812
69 2 0.867335 0.901457 0.788789
27 1 0.635921 0.669349 0.8606
130 2 0.743014 0.626005 0.812409
26 1 0.870742 0.999133 0.867145
114 2 0.996167 0.754879 0.83813
45 1 0.953179 0.823344 0.7427
60 2 0.761984 0.059001 0.871167
59 1 0.664437 0.0447917 0.947141
38 1 0.6463 0.82232 0.0524559
100 2 0.649166 0.729554 0.969906
3 2 0.905208 0.950534 0.976556
107 2 0.665376 0.927222 0.987978
73 1 0.992854 0.913147 0.0584324
1 2 0.025485 0.604377 0.971722
31 2 0.0423565 0.0226051 0.0929075
10 2 0.0598727 0.817368 0.0144911
71 1 0.0643937 0.719391 0.936356
