ITEM: TIMESTEP
2
ITEM: NUMBER OF ATOMS
150
ITEM: BOX BOUNDS pp pp pp
0.0000000000000000e+00 1.3071320955202580e+01
0.0000000000000000e+00 1.3071320955202580e+01
0.0000000000000000e+00 1.3071320955202580e+01
ITEM: ATOMS id type xs ys zs
70 2 0.147734 0.324045 0.127465
128 2 0.287433 0.475352 0.0876303
40 1 0.312109 0.0754383 0.215462
32 1 0.129106 0.217932 0.188749
50 1 0.17075 0.433931 0.0753271
101 2 0.29659 0.0300874 0.0990529
95 2 0.0793368 0.129179 0.115441
62 2 0.236943 0.171667 0.231985
124 2 0.432662 0.106874 0.22601
55 1 0.538646 0.0602399 0.273137
54 1 0.485247 0.479317 0.398113
21 2 0.379764 0.481159 0.333279
14 2 0.0493542 0.237918 0.281357
68 2 0.203177 0.452026 0.434152
72 2 0.168032 0.370488 0.610565
94 1 0.164318 0.0934584 0.539782
36 2 0.287533 0.100693 0.562537
146 2 0.465854 0.424132 0.508045
19 1 0.10976 0.421564 0.511435
20 1 0.394899 0.0448665 0.594664
113 2 0.491825 0.120353 0.618189
79 2 0.0783431 0.116873 0.630344
42 2 0.127962 0.165475 0.445903
127 2 0.268516 0.269411 0.778159
33 1 0.194632 0.360028 0.731756
116 2 0.458819 0.177975 0.802455
112 2 0.0798701 0.365175 0.783328
131 2 0.520689 0.314382 0.675583
56 2 0.254574 0.465738 0.76332
52 1 0.538707 0.193998 0.707792
139 2 0.323162 0.154901 0.941668
117 2 0.41759 0.341231 0.90057
77 1 0.356176 0.0442931 0.990937
110 2 0.15177 0.415104 0.954693
16 1 0.510976 0.422475 0.917543
9 2 0.478727 0.0484095 0.0208269
149 2 0.538599 0.488437 0.815707
140 2 0.47646 0.500626 0.00761704
34 1 0.361612 0.237904 0.856254
83 1 0.46359 0.747988 0.142857
65 1 0.367542 0.554316 0.0351608
104 2 0.392016 0.65276 0.106247
138 2 0.384462 0.834355 0.188085
148 2 0.0961629 0.527981 0.112491
142 2 0.534462 0.774703 0.0433125
96 1 0.270635 0.530729 0.366177
78 1 0.310926 0.860075 0.28482
118 2 0.371246 0.816402 0.392177
125 2 0.503803 0.953167 0.324794
115 2 0.201712 0.57392 0.273155
87 2 0.19776 0.811186 0.277746
121 2 0.533033 0.714401 0.243712
61 2 0.523785 0.597674 0.411423
39 2 0.294484 0.982726 0.297203
92 1 0.0754218 0.794081 0.302703
102 2 0.072023 0.801316 0.427479
58 1 0.480133 0.883621 0.424444
89 1 0.0820636 0.568785 0.230786
137 2 0.568505 0.796647 0.423197
132 2 0.301461 0.632468 0.435222
90 2 0.233017 0.796511 0.539685
80 1 0.330811 0.73894 0.489932
67 1 0.12123 0.852826 0.529895
41 2 0.421725 0.738359 0.574634
12 2 0.143838 0.973621 0.510134
44 2 0.436473 0.959044 0.512877
24 2 0.0457216 0.833646 0.625994
120 2 0.438687 0.809794 0.770163
75 1 0.451648 0.71114 0.693615
28 2 0.365256 0.629304 0.729152
48 1 0.424264 0.930485 0.799922
49 2 0.541347 0.976878 0.8106
97 1 0.279784 0.580266 0.804058
136 2 0.563346 0.659581 0.711916
133 2 0.370902 0.984397 0.700947
37 2 0.323205 0.581966 0.921399
108 2 0.356627 0.957213 0.901543
15 2 0.173043 0.645517 0.801457
25 1 0.984692 0.0647783 0.067243
109 2 0.646044 0.359822 0.163954
11 1 0.596522 0.0722955 0.0559506
99 2 0.612992 0.0381881 0.17536
135 2 0.907715 0.0251909 0.159707
74 2 0.613199 0.194857 0.0533952
63 1 0.666352 0.307328 0.0537112
126 2 0.76557 0.474123 0.281112
51 2 0.585445 0.133414 0.361481
88 2 0.720412 0.281621 0.341716
84 1 0.668282 0.203327 0.424634
17 1 0.681856 0.383642 0.280256
122 2 0.578296 0.41933 0.341946
5 2 0.855963 0.989836 0.357876
93 1 0.0299048 0.232983 0.402997
81 2 0.931196 0.163963 0.427566
43 2 0.916382 0.0210263 0.557266
4 2 0.612543 0.276693 0.508639
103 2 0.646979 0.456481 0.586779
129 2 0.747946 0.121276 0.474347
22 1 0.858735 0.0664823 0.455696
7 1 0.557711 0.370785 0.571789
144 2 0.0296091 0.335674 0.471077
2 1 0.752212 0.464472 0.655328
76 2 0.661361 0.184765 0.728187
13 1 0.778722 0.230352 0.736214
23 2 0.772664 0.348338 0.695402
106 2 0.872451 0.170878 0.67757
86 1 0.961315 0.0841641 0.657795
6 2 0.952952 0.00607883 0.754857
30 2 0.615295 0.369181 0.959521
111 2 0.9576 0.347509 0.941805
57 1 0.874559 0.25552 0.960569
98 2 0.925645 0.146301 0.993936
123 2 0.668687 0.0216981 0.969274
35 2 0.809656 0.234023 0.856377
85 1 0.0443818 0.419057 0.890061
119 2 0.789159 0.292652 0.0420333
145 2 0.929707 0.785539 0.0722482
141 2 0.731674 0.740439 0.0557398
18 1 0.827755 0.749904 0.134693
147 2 0.837467 0.645213 0.199683
53 2 0.809931 0.847517 0.212821
105 2 0.702945 0.652339 0.344765
150 2 0.000266455 0.883706 0.262117
82 1 0.805942 0.588899 0.306081
47 1 0.586539 0.691451 0.356964
66 2 0.883734 0.587879 0.40155
8 1 0.887929 0.939166 0.248217
46 2 0.0412492 0.683871 0.257538
143 2 0.0274661 0.478728 0.292515
91 1 0.926165 0.572662 0.516832
29 2 0.922638 0.688545 0.562877
64 2 0.844491 0.507299 0.585713
134 2 0.0397029 0.523771 0.532353
69 2 0.856038 0.8404 0.691413
27 1 0.617427 0.583721 0.795353
130 2 0.723953 0.536371 0.753202
26 1 0.863014 0.924885 0.782358
114 2 0.977012 0.691918 0.75232
45 1 0.946438 0.764306 0.65576
60 2 0.75194 0.979599 0.788543
59 1 0.654184 0.960417 0.861779
38 1 0.636982 0.74638 0.975969
100 2 0.629368 0.644753 0.903749
3 2 0.892521 0.869692 0.890241
107 2 0.654333 0.840616 0.896707
73 1 0.981848 0.843823 0.97579
1 2 0.0234205 0.542014 0.877992
31 2 0.018872 0.958083 0.0113986
10 2 0.0523293 0.756243 0.921539
71 1 0.0552449 0.658527 0.842432
