ITEM: TIMESTEP
2
ITEM: NUMBER OF ATOMS
150
ITEM: BOX BOUNDS pp pp pp
0.0000000000000000e+00 1.3029545251176934e+01
0.0000000000000000e+00 1.3029545251176934e+01
0.0000000000000000e+00 1.3029545251176934e+01
ITEM: ATOMS id type xs ys zs
70 2 0.156492 0.390655 0.216335
128 2 0.317942 0.504649 0.152549
40 1 0.305349 0.131719 0.281435
32 1 0.119774 0.277588 0.252438
50 1 0.194258 0.486964 0.147583
101 2 0.296033 0.0855631 0.163688
95 2 0.0785144 0.19816 0.165802
62 2 0.222308 0.221179 0.299137
124 2 0.424131 0.169232 0.295235
55 1 0.532072 0.125588 0.342194
54 1 0.472831 0.53865 0.443258
21 2 0.36045 0.545912 0.391672
14 2 0.0329683 0.287899 0.340209
68 2 0.22146 0.518185 0.538233
72 2 0.167073 0.403944 0.688144
94 1 0.15349 0.136006 0.591884
36 2 0.277445 0.134215 0.614697
146 2 0.465009 0.482791 0.55441
19 1 0.1211 0.469748 0.59279
20 1 0.392486 0.102613 0.654276
113 2 0.476231 0.19393 0.670788
79 2 0.0695632 0.16374 0.684522
42 2 0.12469 0.214509 0.499777
127 2 0.272446 0.328651 0.859553
33 1 0.198011 0.41436 0.808156
116 2 0.461737 0.241779 0.864029
112 2 0.0838685 0.42695 0.857109
131 2 0.515046 0.379154 0.733641
56 2 0.258522 0.521696 0.83024
52 1 0.532426 0.258139 0.762283
139 2 0.345288 0.223539 0.02313
117 2 0.4348 0.407545 0.96261
77 1 0.367414 0.104766 0.0622556
110 2 0.155011 0.458974 0.0321042
16 1 0.532608 0.48597 0.97564
9 2 0.486252 0.0995672 0.100431
149 2 0.558203 0.556834 0.876669
140 2 0.502813 0.559088 0.0723964
34 1 0.372686 0.302423 0.929384
83 1 0.47151 0.790756 0.215257
65 1 0.38866 0.596695 0.106321
104 2 0.403399 0.687964 0.190321
138 2 0.391419 0.876479 0.260424
148 2 0.136125 0.594331 0.176902
142 2 0.531297 0.815951 0.107376
96 1 0.254805 0.587822 0.44154
78 1 0.310221 0.910479 0.347863
118 2 0.36972 0.877758 0.458728
125 2 0.508042 0.0127752 0.390578
115 2 0.154739 0.595583 0.370565
87 2 0.198229 0.859297 0.342923
121 2 0.556918 0.771642 0.307978
61 2 0.517319 0.654229 0.460166
39 2 0.293325 0.0328075 0.35751
92 1 0.0749772 0.841531 0.359305
102 2 0.0659574 0.832902 0.485511
58 1 0.48292 0.941838 0.489298
89 1 0.0680401 0.61652 0.282237
137 2 0.566675 0.850731 0.492583
132 2 0.288408 0.698419 0.492102
90 2 0.22592 0.857844 0.603318
80 1 0.324183 0.800466 0.552639
67 1 0.106936 0.896487 0.586344
41 2 0.413081 0.794166 0.641262
12 2 0.12017 0.0181326 0.558325
44 2 0.44414 0.0140803 0.581627
24 2 0.0349104 0.875187 0.684406
120 2 0.444141 0.878292 0.831488
75 1 0.45197 0.774461 0.761388
28 2 0.370355 0.692089 0.809853
48 1 0.429684 0.9981 0.864931
49 2 0.546272 0.0438643 0.882871
97 1 0.286652 0.631924 0.880593
136 2 0.568457 0.728714 0.769645
133 2 0.375803 0.0512122 0.766577
37 2 0.333007 0.628445 0.997826
108 2 0.361823 0.0225992 0.967498
15 2 0.178815 0.694823 0.88528
25 1 0.993432 0.117632 0.124667
109 2 0.666993 0.436321 0.213877
11 1 0.598126 0.146517 0.13019
99 2 0.615129 0.120243 0.250118
135 2 0.916533 0.0818493 0.217746
74 2 0.594948 0.270359 0.122931
63 1 0.673833 0.366471 0.110988
126 2 0.756025 0.534251 0.370005
51 2 0.56364 0.20012 0.43627
88 2 0.705129 0.33424 0.390414
84 1 0.656462 0.266833 0.486312
17 1 0.676451 0.445988 0.337852
122 2 0.561395 0.476938 0.380541
5 2 0.862833 0.0636021 0.415692
93 1 0.0306033 0.290555 0.463296
81 2 0.927858 0.235154 0.505063
43 2 0.899171 0.0747265 0.618631
4 2 0.616113 0.347696 0.571744
103 2 0.636152 0.525848 0.652531
129 2 0.737087 0.180996 0.532283
22 1 0.853749 0.13506 0.517808
7 1 0.550734 0.438069 0.630919
144 2 0.0531361 0.399651 0.516127
2 1 0.747558 0.522137 0.710794
76 2 0.654506 0.241711 0.778701
13 1 0.771196 0.286959 0.790931
23 2 0.760317 0.406974 0.756577
106 2 0.867928 0.230579 0.734033
86 1 0.950753 0.138427 0.716028
6 2 0.947735 0.0609308 0.812205
30 2 0.63837 0.426001 0.0059099
111 2 0.95942 0.390327 0.0111616
57 1 0.8758 0.295441 0.0172703
98 2 0.92913 0.183019 0.0383339
123 2 0.671335 0.104984 0.0395802
35 2 0.808402 0.287573 0.911301
85 1 0.0465514 0.468572 0.967855
119 2 0.790614 0.320354 0.106378
145 2 0.921752 0.846653 0.143785
141 2 0.728309 0.798854 0.130007
18 1 0.821391 0.812958 0.212239
147 2 0.829303 0.713225 0.282901
53 2 0.808658 0.916371 0.282893
105 2 0.714377 0.711835 0.437529
150 2 0.00216439 0.93902 0.330904
82 1 0.811816 0.643737 0.382651
47 1 0.595434 0.746469 0.428268
66 2 0.906916 0.638533 0.463016
8 1 0.895026 0.00194492 0.31176
46 2 0.0443697 0.738566 0.297913
143 2 0.972534 0.541219 0.279316
91 1 0.929783 0.617847 0.584212
29 2 0.909794 0.726122 0.644392
64 2 0.840208 0.539418 0.62841
134 2 0.043432 0.569067 0.617345
69 2 0.855521 0.885385 0.774242
27 1 0.631814 0.654898 0.848759
130 2 0.737133 0.610637 0.79902
26 1 0.862534 0.981009 0.852546
114 2 0.986752 0.741196 0.827856
45 1 0.941649 0.807326 0.732442
60 2 0.755594 0.042217 0.863655
59 1 0.658071 0.0333173 0.939214
38 1 0.640203 0.808041 0.041879
100 2 0.644068 0.716656 0.956869
3 2 0.899135 0.9316 0.961491
107 2 0.65561 0.915554 0.981088
73 1 0.98458 0.897534 0.0476856
1 2 0.0226253 0.59242 0.9642
31 2 0.0375688 0.00740454 0.0813931
10 2 0.0560201 0.804561 0.00203136
71 1 0.0597388 0.706365 0.92225
