ITEM: TIMESTEP
2
ITEM: NUMBER OF ATOMS
150
ITEM: BOX BOUNDS pp pp pp
0.0000000000000000e+00 1.2974534220789756e+01
0.0000000000000000e+00 1.2974534220789756e+01
0.0000000000000000e+00 1.2974534220789756e+01
ITEM: ATOMS id type xs ys zs
70 2 0.14488 0.408533 0.225731
128 2 0.30598 0.518467 0.156293
40 1 0.296782 0.142066 0.28536
32 1 0.112398 0.292865 0.258978
50 1 0.182922 0.498102 0.147964
101 2 0.282786 0.0880397 0.171735
95 2 0.0721942 0.213634 0.169633
62 2 0.215595 0.233879 0.301727
124 2 0.416473 0.179745 0.294582
55 1 0.522773 0.136747 0.346284
54 1 0.468637 0.548582 0.446275
21 2 0.358056 0.553895 0.38902
14 2 0.0226389 0.300824 0.345058
68 2 0.21237 0.518003 0.525654
72 2 0.166445 0.423743 0.690886
94 1 0.149038 0.146968 0.592708
36 2 0.272378 0.142429 0.617338
146 2 0.456473 0.4959 0.55984
19 1 0.113984 0.48462 0.594462
20 1 0.384684 0.107444 0.661675
113 2 0.469491 0.19957 0.673662
79 2 0.0646031 0.172831 0.684139
42 2 0.121951 0.233508 0.506484
127 2 0.26744 0.327194 0.85597
33 1 0.190223 0.417216 0.813705
116 2 0.457268 0.247452 0.865162
112 2 0.072303 0.420869 0.859728
131 2 0.507795 0.391494 0.736901
56 2 0.246869 0.524406 0.850895
52 1 0.525666 0.269149 0.762497
139 2 0.336731 0.217636 0.0216347
117 2 0.420406 0.40922 0.969762
77 1 0.352776 0.100995 0.0684614
110 2 0.139972 0.460872 0.0363737
16 1 0.520173 0.485773 0.979794
9 2 0.472568 0.0906007 0.108557
149 2 0.546115 0.556502 0.879863
140 2 0.493183 0.562113 0.0770024
34 1 0.365104 0.301984 0.931984
83 1 0.468965 0.806339 0.218592
65 1 0.382055 0.608302 0.113344
104 2 0.400519 0.702527 0.194558
138 2 0.387771 0.892697 0.263179
148 2 0.127343 0.610161 0.165619
142 2 0.525086 0.830044 0.108758
96 1 0.250561 0.596139 0.437396
78 1 0.30527 0.922943 0.352308
118 2 0.367504 0.883493 0.461541
125 2 0.501497 0.0259374 0.401601
115 2 0.15633 0.610095 0.357602
87 2 0.190855 0.873943 0.345593
121 2 0.554633 0.789187 0.311093
61 2 0.510859 0.666991 0.460924
39 2 0.290178 0.0464609 0.367473
92 1 0.0656553 0.854735 0.362661
102 2 0.0559351 0.840163 0.48806
58 1 0.478358 0.947924 0.496378
89 1 0.0637576 0.633541 0.273141
137 2 0.56712 0.861061 0.498839
132 2 0.281312 0.704772 0.494678
90 2 0.219488 0.865865 0.600442
80 1 0.319212 0.806246 0.555299
67 1 0.10123 0.907971 0.584491
41 2 0.408086 0.793883 0.641656
12 2 0.116184 0.0298992 0.554681
44 2 0.439358 0.0139057 0.594999
24 2 0.0321506 0.894704 0.687261
120 2 0.427849 0.879201 0.833052
75 1 0.442936 0.776303 0.761814
28 2 0.361391 0.691876 0.80701
48 1 0.415367 0.998102 0.871394
49 2 0.532733 0.043275 0.890962
97 1 0.278945 0.640774 0.885882
136 2 0.559845 0.734352 0.779396
133 2 0.362888 0.0594691 0.775563
37 2 0.328992 0.640456 0.00209509
108 2 0.347031 0.0174943 0.974797
15 2 0.170705 0.704456 0.884798
25 1 0.989477 0.130526 0.124507
109 2 0.648923 0.429942 0.214642
11 1 0.585956 0.13908 0.132847
99 2 0.607681 0.122868 0.25507
135 2 0.90911 0.0970757 0.216298
74 2 0.580323 0.262542 0.115831
63 1 0.659128 0.360245 0.111977
126 2 0.753219 0.544302 0.353645
51 2 0.561448 0.214411 0.434929
88 2 0.70508 0.347338 0.397387
84 1 0.655458 0.276526 0.489508
17 1 0.671565 0.452472 0.335441
122 2 0.5608 0.488406 0.38663
5 2 0.854755 0.0781649 0.414729
93 1 0.0224524 0.303435 0.469194
81 2 0.922044 0.241153 0.508927
43 2 0.893813 0.0807206 0.619999
4 2 0.608992 0.358268 0.572461
103 2 0.631909 0.537807 0.658013
129 2 0.732049 0.190375 0.538896
22 1 0.846177 0.141944 0.520896
7 1 0.545923 0.449892 0.633386
144 2 0.0367495 0.412422 0.527052
2 1 0.743886 0.533196 0.717394
76 2 0.6491 0.249083 0.775026
13 1 0.766648 0.294705 0.790349
23 2 0.756016 0.415357 0.757212
106 2 0.864654 0.241589 0.730778
86 1 0.945949 0.146285 0.716129
6 2 0.943641 0.0744779 0.818213
30 2 0.623276 0.420425 0.00797275
111 2 0.943069 0.397681 0.0131161
57 1 0.863711 0.299756 0.0181258
98 2 0.926071 0.192531 0.0361237
123 2 0.662805 0.0923169 0.0465455
35 2 0.798588 0.29097 0.911156
85 1 0.0334844 0.472378 0.967997
119 2 0.776449 0.317313 0.106401
145 2 0.913994 0.868437 0.146411
141 2 0.721189 0.805536 0.131106
18 1 0.813593 0.82976 0.211127
147 2 0.826866 0.730288 0.284073
53 2 0.79808 0.932171 0.284136
105 2 0.709204 0.715906 0.438033
150 2 0.996825 0.957165 0.336474
82 1 0.808735 0.653177 0.380922
47 1 0.592575 0.758471 0.429825
66 2 0.899887 0.642881 0.466196
8 1 0.887343 0.0177152 0.310838
46 2 0.0369706 0.754706 0.294669
143 2 0.966962 0.558327 0.277513
91 1 0.926727 0.630952 0.587528
29 2 0.908453 0.74351 0.640177
64 2 0.83918 0.557736 0.641067
134 2 0.0439374 0.589146 0.613348
69 2 0.84863 0.899135 0.773288
27 1 0.620336 0.656218 0.857328
130 2 0.729225 0.61237 0.813781
26 1 0.856735 0.99262 0.856456
114 2 0.978407 0.752575 0.826944
45 1 0.937594 0.822669 0.731109
60 2 0.747525 0.0534461 0.863941
59 1 0.649189 0.0309022 0.937187
38 1 0.6321 0.811596 0.0442503
100 2 0.63069 0.712653 0.96845
3 2 0.894273 0.939145 0.962651
107 2 0.654701 0.909357 0.969431
73 1 0.981536 0.90906 0.0493141
1 2 0.015125 0.597097 0.954646
31 2 0.0341669 0.0193933 0.0832674
10 2 0.0476463 0.811902 0.00474246
71 1 0.0509898 0.71506 0.922785
