ITEM: TIMESTEP
2
ITEM: NUMBER OF ATOMS
150
ITEM: BOX BOUNDS pp pp pp
0.0000000000000000e+00 1.3057119467151267e+01
0.0000000000000000e+00 1.3057119467151267e+01
0.0000000000000000e+00 1.3057119467151267e+01
ITEM: ATOMS id type xs ys zs
70 2 0.0379136 0.304674 0.0190852
128 2 0.17473 0.450321 0.993914
40 1 0.213574 0.0508179 0.105706
32 1 0.0278755 0.201224 0.0863418
50 1 0.0573709 0.417797 0.971606
101 2 0.20706 0.996669 0.99159
95 2 0.960943 0.10809 0.0348086
62 2 0.139689 0.149568 0.109309
124 2 0.333844 0.0779858 0.127167
55 1 0.437364 0.0176148 0.164579
54 1 0.366404 0.448456 0.269196
21 2 0.253705 0.448092 0.217446
14 2 0.968729 0.235391 0.190102
68 2 0.0905202 0.41016 0.333682
72 2 0.0754718 0.346182 0.517534
94 1 0.0695097 0.0668439 0.438759
36 2 0.187317 0.0762889 0.476649
146 2 0.362976 0.394615 0.382486
19 1 0.00632673 0.387339 0.422481
20 1 0.29189 0.014729 0.502913
113 2 0.391086 0.0897417 0.511948
79 2 0.971594 0.0792727 0.518265
42 2 0.0486419 0.149706 0.34925
127 2 0.153171 0.246365 0.682975
33 1 0.0906869 0.34609 0.640766
116 2 0.349106 0.163917 0.685945
112 2 0.97005 0.363728 0.676195
131 2 0.427604 0.288977 0.554421
56 2 0.154439 0.446924 0.681625
52 1 0.436881 0.17061 0.596533
139 2 0.212503 0.102009 0.818658
117 2 0.296585 0.291721 0.82128
77 1 0.264468 0.00823178 0.882105
110 2 0.0359971 0.404539 0.849939
16 1 0.39892 0.361408 0.839538
9 2 0.38263 0.0429897 0.908577
149 2 0.42558 0.439204 0.745188
140 2 0.375671 0.426534 0.943931
34 1 0.247316 0.200164 0.750738
83 1 0.364406 0.710098 0.0536577
65 1 0.280157 0.504582 0.959157
104 2 0.31024 0.59917 0.0340131
138 2 0.274192 0.787976 0.0931251
148 2 0.979144 0.511273 0.0029655
142 2 0.417915 0.737578 0.943926
96 1 0.145009 0.492467 0.258985
78 1 0.19475 0.830573 0.178514
118 2 0.251965 0.786577 0.289815
125 2 0.396382 0.92233 0.234751
115 2 0.0571472 0.523082 0.177906
87 2 0.0771685 0.793274 0.169747
121 2 0.44801 0.701778 0.147543
61 2 0.406336 0.567181 0.282974
39 2 0.189485 0.954742 0.184015
92 1 0.952545 0.778223 0.189752
102 2 0.942912 0.793934 0.314047
58 1 0.359933 0.85161 0.328862
89 1 0.945918 0.544177 0.11991
137 2 0.444144 0.761899 0.340465
132 2 0.177505 0.597969 0.321076
90 2 0.105389 0.759187 0.421525
80 1 0.206943 0.702166 0.380433
67 1 0.0064846 0.835454 0.412977
41 2 0.288605 0.689708 0.473503
12 2 0.0536809 0.94937 0.394387
44 2 0.317693 0.922729 0.420509
24 2 0.943795 0.832578 0.519604
120 2 0.357 0.781921 0.649095
75 1 0.330579 0.673737 0.5912
28 2 0.236122 0.62703 0.657653
48 1 0.333411 0.894194 0.697949
49 2 0.442985 0.954675 0.709011
97 1 0.182523 0.553252 0.741729
136 2 0.425579 0.594712 0.608786
133 2 0.26943 0.955573 0.610798
37 2 0.257534 0.53918 0.840049
108 2 0.27663 0.907234 0.808404
15 2 0.0810231 0.610027 0.785585
25 1 0.876417 0.0432192 0.969658
109 2 0.566421 0.352529 0.0441832
11 1 0.498916 0.0408047 0.955733
99 2 0.491135 0.972034 0.0608694
135 2 0.780374 0.0104215 0.0457212
74 2 0.52746 0.153855 0.997902
63 1 0.572987 0.263036 0.958902
126 2 0.636743 0.46559 0.202917
51 2 0.507401 0.08951 0.236812
88 2 0.613003 0.259525 0.216719
84 1 0.571008 0.17626 0.299919
17 1 0.572747 0.366875 0.166676
122 2 0.45577 0.386203 0.209171
5 2 0.738348 0.969958 0.245565
93 1 0.944601 0.206776 0.30697
81 2 0.8553 0.120976 0.312197
43 2 0.804619 0.987461 0.445369
4 2 0.501405 0.243596 0.378793
103 2 0.548844 0.42241 0.463655
129 2 0.662096 0.117826 0.361147
22 1 0.761206 0.0448758 0.342525
7 1 0.455875 0.340329 0.444656
144 2 0.92434 0.300923 0.384628
2 1 0.642781 0.434452 0.547497
76 2 0.558999 0.152833 0.619325
13 1 0.676929 0.198982 0.622985
23 2 0.667561 0.316404 0.580631
106 2 0.769858 0.141099 0.561526
86 1 0.853357 0.0485332 0.545533
6 2 0.843685 0.979045 0.648893
30 2 0.501581 0.293279 0.860391
111 2 0.848424 0.326665 0.833806
57 1 0.778474 0.223714 0.847235
98 2 0.841445 0.120421 0.878119
123 2 0.571755 0.00385428 0.861929
35 2 0.715379 0.203536 0.741526
85 1 0.927828 0.40854 0.784811
119 2 0.692433 0.242347 0.934445
145 2 0.806177 0.755672 0.975489
141 2 0.611796 0.699722 0.955396
18 1 0.701742 0.726145 0.0380269
147 2 0.714629 0.636651 0.121915
53 2 0.682057 0.834704 0.0993183
105 2 0.599497 0.641325 0.279404
150 2 0.877011 0.866218 0.143814
82 1 0.695326 0.572592 0.227285
47 1 0.480091 0.667743 0.265537
66 2 0.780731 0.565827 0.316733
8 1 0.76398 0.922206 0.133862
46 2 0.926318 0.665116 0.146461
143 2 0.855825 0.46867 0.152017
91 1 0.82818 0.550658 0.429989
29 2 0.844964 0.665017 0.475716
64 2 0.74283 0.490953 0.500192
134 2 0.938814 0.492009 0.436603
69 2 0.782313 0.788057 0.630559
27 1 0.490619 0.536441 0.699378
130 2 0.596129 0.494647 0.647289
26 1 0.762749 0.894972 0.691367
114 2 0.950203 0.671663 0.643407
45 1 0.877636 0.738959 0.568202
60 2 0.647658 0.93934 0.679298
59 1 0.554375 0.932437 0.760159
38 1 0.519045 0.714248 0.872961
100 2 0.505209 0.617524 0.794636
3 2 0.77694 0.867824 0.811775
107 2 0.542379 0.815769 0.80445
73 1 0.864954 0.824005 0.889933
1 2 0.898252 0.529831 0.775348
31 2 0.917559 0.930666 0.929089
10 2 0.930641 0.740311 0.826066
71 1 0.961811 0.637823 0.763116
