ITEM: TIMESTEP
2
ITEM: NUMBER OF ATOMS
150
ITEM: BOX BOUNDS pp pp pp
0.0000000000000000e+00 1.3071238742000499e+01
0.0000000000000000e+00 1.3071238742000499e+01
0.0000000000000000e+00 1.3071238742000499e+01
ITEM: ATOMS id type xs ys zs
70 2 0.043576 0.293354 0.00387948
128 2 0.183686 0.438772 0.986959
40 1 0.221016 0.0422453 0.0947372
32 1 0.0332045 0.191241 0.0731858
50 1 0.0662724 0.407343 0.961463
101 2 0.213553 0.988235 0.982627
95 2 0.9668 0.0967437 0.0260182
62 2 0.144902 0.139436 0.0973529
124 2 0.341222 0.0696391 0.115901
55 1 0.444832 0.009873 0.154503
54 1 0.374319 0.440421 0.256424
21 2 0.260451 0.440833 0.207282
14 2 0.978111 0.230457 0.176244
68 2 0.096871 0.404325 0.323018
72 2 0.0803208 0.333331 0.504474
94 1 0.0754213 0.0599811 0.426508
36 2 0.194146 0.0657818 0.462628
146 2 0.375438 0.388883 0.37058
19 1 0.0121552 0.37892 0.410602
20 1 0.299946 0.00640867 0.489437
113 2 0.399715 0.0807751 0.500648
79 2 0.980387 0.0735582 0.507034
42 2 0.0571172 0.14238 0.335788
127 2 0.162442 0.234954 0.671016
33 1 0.0984037 0.333155 0.627327
116 2 0.360148 0.154019 0.675999
112 2 0.980812 0.350379 0.666436
131 2 0.43336 0.280506 0.541657
56 2 0.163284 0.434156 0.664746
52 1 0.445663 0.162596 0.584535
139 2 0.223289 0.0936932 0.809259
117 2 0.305025 0.286868 0.8052
77 1 0.269988 0.997492 0.872181
110 2 0.0472563 0.395292 0.838994
16 1 0.406978 0.356425 0.824944
9 2 0.388537 0.0271855 0.902374
149 2 0.431226 0.435613 0.731322
140 2 0.384284 0.419746 0.930755
34 1 0.257517 0.190982 0.739246
83 1 0.371129 0.703869 0.0395933
65 1 0.287173 0.495504 0.94902
104 2 0.317974 0.592194 0.0197316
138 2 0.28146 0.781581 0.0813286
148 2 0.989453 0.501383 0.9905
142 2 0.425544 0.734254 0.932346
96 1 0.151626 0.485884 0.24774
78 1 0.201358 0.823338 0.166808
118 2 0.257005 0.78102 0.279342
125 2 0.405203 0.914925 0.223603
115 2 0.0644531 0.515897 0.165323
87 2 0.0852822 0.782096 0.156779
121 2 0.454645 0.693817 0.133487
61 2 0.415118 0.558638 0.268983
39 2 0.196617 0.947557 0.17306
92 1 0.961904 0.769041 0.177067
102 2 0.955715 0.787391 0.301503
58 1 0.367559 0.843273 0.316828
89 1 0.955027 0.53558 0.105709
137 2 0.450353 0.752013 0.32564
132 2 0.184225 0.590632 0.311561
90 2 0.113848 0.751564 0.414081
80 1 0.214754 0.694917 0.370486
67 1 0.0163395 0.829135 0.40137
41 2 0.299345 0.683957 0.460957
12 2 0.058826 0.944398 0.381221
44 2 0.328509 0.913872 0.410373
24 2 0.953487 0.825133 0.507025
120 2 0.360874 0.775805 0.638076
75 1 0.340974 0.666851 0.578547
28 2 0.249831 0.611085 0.642452
48 1 0.340237 0.889552 0.685223
49 2 0.450053 0.948746 0.700644
97 1 0.191183 0.53986 0.725717
136 2 0.439503 0.59198 0.595562
133 2 0.276852 0.951441 0.598424
37 2 0.259252 0.529148 0.830071
108 2 0.280516 0.899938 0.794538
15 2 0.0854865 0.597152 0.757761
25 1 0.883915 0.0310954 0.961111
109 2 0.574172 0.345682 0.0282599
11 1 0.505089 0.0349266 0.947705
99 2 0.504822 0.970251 0.0528192
135 2 0.788142 1.6958e-05 0.0358713
74 2 0.530199 0.150651 0.984219
63 1 0.580136 0.2574 0.943196
126 2 0.642912 0.4545 0.189942
51 2 0.50913 0.0835529 0.229504
88 2 0.616505 0.248461 0.200084
84 1 0.577756 0.168656 0.28827
17 1 0.577813 0.356995 0.151291
122 2 0.46073 0.377392 0.192871
5 2 0.744776 0.962431 0.234161
93 1 0.955016 0.198701 0.292187
81 2 0.864805 0.113399 0.294946
43 2 0.814923 0.984495 0.431388
4 2 0.514615 0.239456 0.369164
103 2 0.557504 0.418336 0.45797
129 2 0.669863 0.10929 0.347015
22 1 0.770423 0.0386186 0.328014
7 1 0.467013 0.335069 0.434889
144 2 0.933474 0.292647 0.369462
2 1 0.651308 0.429383 0.541701
76 2 0.568345 0.148999 0.607087
13 1 0.687265 0.192869 0.610805
23 2 0.677719 0.311403 0.572563
106 2 0.779922 0.136147 0.547847
86 1 0.861955 0.0422364 0.533196
6 2 0.851074 0.973737 0.635722
30 2 0.50951 0.287607 0.843983
111 2 0.860823 0.313353 0.822753
57 1 0.788505 0.211905 0.835256
98 2 0.848738 0.107766 0.869036
123 2 0.578354 0.99798 0.854729
35 2 0.727253 0.191963 0.728661
85 1 0.9398 0.396555 0.774964
119 2 0.6992 0.234518 0.918602
145 2 0.809679 0.750698 0.962753
141 2 0.617603 0.691268 0.946395
18 1 0.708455 0.71691 0.0268747
147 2 0.723766 0.625275 0.108514
53 2 0.689624 0.823493 0.0920003
105 2 0.608172 0.632203 0.264852
150 2 0.885072 0.857012 0.132834
82 1 0.703283 0.560873 0.213928
47 1 0.488611 0.658919 0.250792
66 2 0.78762 0.551252 0.304458
8 1 0.7714 0.912253 0.123883
46 2 0.934268 0.65691 0.13114
143 2 0.865732 0.459161 0.138234
91 1 0.834545 0.541666 0.418777
29 2 0.849973 0.658899 0.458622
64 2 0.749978 0.484875 0.491505
134 2 0.944696 0.482143 0.42864
69 2 0.781748 0.789183 0.606703
27 1 0.499014 0.532188 0.688692
130 2 0.60624 0.488318 0.642576
26 1 0.768797 0.890596 0.67775
114 2 0.939679 0.667178 0.635116
45 1 0.878731 0.735401 0.550806
60 2 0.655109 0.93947 0.672097
59 1 0.56172 0.92836 0.752237
38 1 0.527269 0.709354 0.862009
100 2 0.511402 0.612499 0.784513
3 2 0.790911 0.856932 0.79515
107 2 0.554402 0.809605 0.792573
73 1 0.875295 0.814203 0.878128
1 2 0.906032 0.516847 0.765839
31 2 0.926526 0.921126 0.919275
10 2 0.943708 0.726298 0.822546
71 1 0.966143 0.626764 0.750344
