ITEM: TIMESTEP
2
ITEM: NUMBER OF ATOMS
150
ITEM: BOX BOUNDS pp pp pp
0.0000000000000000e+00 1.3042270186500904e+01
0.0000000000000000e+00 1.3042270186500904e+01
0.0000000000000000e+00 1.3042270186500904e+01
ITEM: ATOMS id type xs ys zs
70 2 0.125453 0.365571 0.141489
128 2 0.279567 0.497411 0.0976313
40 1 0.289897 0.115884 0.221743
32 1 0.102062 0.255756 0.194929
50 1 0.160888 0.466046 0.078008
101 2 0.279748 0.0672674 0.106052
95 2 0.0550539 0.164354 0.122382
62 2 0.210032 0.208367 0.238284
124 2 0.409443 0.148565 0.23947
55 1 0.515831 0.100689 0.284972
54 1 0.47157 0.512378 0.386967
21 2 0.363689 0.518392 0.325763
14 2 0.020343 0.273374 0.286364
68 2 0.189927 0.492813 0.436161
72 2 0.173022 0.407923 0.612692
94 1 0.146643 0.116022 0.533575
36 2 0.268982 0.118246 0.559504
146 2 0.458734 0.466388 0.502914
19 1 0.104129 0.45737 0.519454
20 1 0.380016 0.0824311 0.604517
113 2 0.467856 0.170984 0.614294
79 2 0.0605248 0.139743 0.623533
42 2 0.11412 0.19664 0.444497
127 2 0.26955 0.301165 0.776477
33 1 0.19356 0.392539 0.734638
116 2 0.456903 0.216832 0.806434
112 2 0.0760066 0.391546 0.781718
131 2 0.506202 0.358697 0.678478
56 2 0.248224 0.49633 0.780665
52 1 0.525315 0.237039 0.704089
139 2 0.317017 0.18875 0.945449
117 2 0.410663 0.374189 0.913326
77 1 0.345397 0.079907 0.00108626
110 2 0.140258 0.440774 0.958167
16 1 0.507633 0.452858 0.931755
9 2 0.46543 0.0842625 0.0395601
149 2 0.530287 0.530243 0.836343
140 2 0.476647 0.521463 0.0313651
34 1 0.357712 0.271841 0.861372
83 1 0.448514 0.776906 0.156984
65 1 0.366765 0.57538 0.0556311
104 2 0.386604 0.672203 0.130373
138 2 0.367049 0.8598 0.203848
148 2 0.0900903 0.566933 0.102956
142 2 0.508997 0.807245 0.0524807
96 1 0.255033 0.567357 0.361611
78 1 0.29154 0.896573 0.29496
118 2 0.352294 0.856865 0.403333
125 2 0.488147 0.992459 0.339439
115 2 0.179546 0.605544 0.271689
87 2 0.176427 0.851718 0.295694
121 2 0.528357 0.759562 0.251876
61 2 0.51122 0.630445 0.399022
39 2 0.276063 0.0188041 0.299259
92 1 0.0542068 0.824927 0.3081
102 2 0.0443132 0.818422 0.433631
58 1 0.463226 0.918949 0.436393
89 1 0.0634917 0.605354 0.219975
137 2 0.549423 0.829843 0.434617
132 2 0.28456 0.669002 0.431194
90 2 0.210958 0.822957 0.542441
80 1 0.312926 0.771602 0.493414
67 1 0.0980947 0.877119 0.530805
41 2 0.401976 0.769869 0.580531
12 2 0.116489 0.997751 0.502381
44 2 0.426817 0.990985 0.531218
24 2 0.031925 0.868933 0.635739
120 2 0.425435 0.852846 0.769768
75 1 0.432432 0.748013 0.70101
28 2 0.345938 0.672305 0.750377
48 1 0.412679 0.970256 0.810001
49 2 0.530325 0.0120534 0.828794
97 1 0.272499 0.608916 0.828843
136 2 0.545443 0.698138 0.720143
133 2 0.359122 0.0346932 0.71772
37 2 0.32622 0.607628 0.941531
108 2 0.343653 0.994653 0.911102
15 2 0.161326 0.664099 0.841217
25 1 0.972623 0.0842006 0.0734041
109 2 0.666968 0.409439 0.160151
11 1 0.581193 0.120179 0.0723714
99 2 0.59422 0.0787537 0.189757
135 2 0.88752 0.0489194 0.159709
74 2 0.588753 0.24413 0.075748
63 1 0.667139 0.340674 0.0569914
126 2 0.747345 0.512777 0.316209
51 2 0.559055 0.179299 0.371294
88 2 0.705969 0.310373 0.341279
84 1 0.651515 0.239621 0.430376
17 1 0.674892 0.418053 0.283859
122 2 0.560236 0.448225 0.327779
5 2 0.835507 0.0364065 0.359495
93 1 0.0150129 0.267864 0.409415
81 2 0.912926 0.206401 0.442836
43 2 0.892137 0.0479089 0.558929
4 2 0.607688 0.322688 0.513115
103 2 0.631575 0.500441 0.599847
129 2 0.726766 0.155942 0.484376
22 1 0.839515 0.10725 0.461721
7 1 0.545767 0.413953 0.574481
144 2 0.0264572 0.37154 0.475008
2 1 0.740089 0.502756 0.66379
76 2 0.648083 0.218113 0.71427
13 1 0.765509 0.262651 0.728643
23 2 0.753375 0.385276 0.705112
106 2 0.862227 0.211422 0.665696
86 1 0.942705 0.114679 0.654156
6 2 0.935884 0.0485065 0.759357
30 2 0.617037 0.397603 0.958137
111 2 0.949748 0.355163 0.938194
57 1 0.864404 0.26237 0.953161
98 2 0.917045 0.152958 0.984631
123 2 0.655772 0.0772142 0.982885
35 2 0.796193 0.249142 0.849159
85 1 0.0331584 0.435839 0.890978
119 2 0.781955 0.294813 0.040897
145 2 0.897029 0.824182 0.0861992
141 2 0.700451 0.76675 0.0836734
18 1 0.800666 0.785267 0.155221
147 2 0.820887 0.67952 0.216372
53 2 0.786244 0.883256 0.232997
105 2 0.697403 0.697391 0.363204
150 2 0.983115 0.920721 0.272988
82 1 0.797689 0.625915 0.32639
47 1 0.578026 0.730118 0.363695
66 2 0.884216 0.626699 0.41494
8 1 0.869595 0.9736 0.25783
46 2 0.0262577 0.722724 0.243661
143 2 0.995385 0.520868 0.275111
91 1 0.919538 0.608937 0.532558
29 2 0.90813 0.721785 0.585651
64 2 0.838621 0.534502 0.5948
134 2 0.0323692 0.557024 0.547681
69 2 0.845625 0.871032 0.717027
27 1 0.604751 0.627019 0.805107
130 2 0.711407 0.580142 0.758921
26 1 0.852299 0.965398 0.798731
114 2 0.978801 0.726608 0.772448
45 1 0.938058 0.79775 0.678283
60 2 0.741403 0.0201217 0.807692
59 1 0.643493 0.00345223 0.882129
38 1 0.617183 0.785082 0.993709
100 2 0.610981 0.690654 0.913007
3 2 0.890977 0.910797 0.904338
107 2 0.644845 0.885835 0.925009
73 1 0.9687 0.867929 0.994463
1 2 0.99899 0.557071 0.884582
31 2 0.020768 0.974758 0.0349193
10 2 0.0324171 0.768477 0.954475
71 1 0.040186 0.675847 0.869271
