ITEM: TIMESTEP
2
ITEM: NUMBER OF ATOMS
150
ITEM: BOX BOUNDS pp pp pp
0.0000000000000000e+00 1.3007240188825200e+01
0.0000000000000000e+00 1.3007240188825200e+01
0.0000000000000000e+00 1.3007240188825200e+01
ITEM: ATOMS id type xs ys zs
70 2 0.187083 0.362267 0.133058
128 2 0.32254 0.507886 0.071499
40 1 0.334185 0.112309 0.2265
32 1 0.147839 0.260466 0.193383
50 1 0.206323 0.462438 0.0614218
101 2 0.334266 0.0622945 0.110957
95 2 0.088103 0.174435 0.122952
62 2 0.246706 0.197075 0.235726
124 2 0.450903 0.15197 0.24484
55 1 0.556958 0.107203 0.294593
54 1 0.520637 0.517252 0.371012
21 2 0.411037 0.509916 0.310097
14 2 0.0855138 0.295196 0.295937
68 2 0.23943 0.472924 0.420936
72 2 0.262917 0.424632 0.615711
94 1 0.178188 0.0949253 0.533996
36 2 0.296379 0.107401 0.572735
146 2 0.507962 0.457965 0.481459
19 1 0.176379 0.439787 0.524741
20 1 0.41024 0.0715353 0.610446
113 2 0.497593 0.161371 0.606512
79 2 0.0910727 0.139135 0.614877
42 2 0.150335 0.15501 0.428162
127 2 0.318995 0.300598 0.783485
33 1 0.261948 0.404029 0.739996
116 2 0.500611 0.207343 0.802198
112 2 0.137135 0.417785 0.757886
131 2 0.537253 0.351969 0.668338
56 2 0.315762 0.49694 0.80599
52 1 0.55704 0.229646 0.692759
139 2 0.365074 0.187814 0.95047
117 2 0.469846 0.365753 0.915012
77 1 0.400801 0.0810144 0.00686107
110 2 0.17024 0.429438 0.946247
16 1 0.564901 0.446547 0.93289
9 2 0.518828 0.106825 0.0412654
149 2 0.582933 0.518683 0.8314
140 2 0.530525 0.51511 0.0330145
34 1 0.409411 0.26734 0.865095
83 1 0.510717 0.772643 0.161746
65 1 0.424819 0.578786 0.0536654
104 2 0.44787 0.665513 0.140839
138 2 0.430049 0.861918 0.201657
148 2 0.125925 0.553227 0.0960801
142 2 0.569216 0.793958 0.0534704
96 1 0.301366 0.555681 0.350364
78 1 0.342508 0.896282 0.28383
118 2 0.386303 0.848789 0.398402
125 2 0.526671 0.00208002 0.35614
115 2 0.21977 0.598953 0.266075
87 2 0.229029 0.858293 0.252371
121 2 0.595181 0.761797 0.254223
61 2 0.548576 0.637058 0.394695
39 2 0.322779 0.0176351 0.30747
92 1 0.104717 0.838684 0.264875
102 2 0.0968111 0.818697 0.389026
58 1 0.494811 0.914943 0.440494
89 1 0.108148 0.609154 0.206414
137 2 0.586082 0.831582 0.440278
132 2 0.333937 0.652704 0.425409
90 2 0.237239 0.792824 0.532304
80 1 0.348924 0.758392 0.488781
67 1 0.128167 0.851229 0.50547
41 2 0.437601 0.762743 0.57671
12 2 0.15432 0.973744 0.508358
44 2 0.449076 0.97588 0.538017
24 2 0.0397158 0.823838 0.586951
120 2 0.473311 0.842945 0.769156
75 1 0.484237 0.743316 0.692878
28 2 0.40302 0.660732 0.739949
48 1 0.463221 0.957545 0.819009
49 2 0.582223 0.990496 0.845731
97 1 0.336469 0.617059 0.83456
136 2 0.597986 0.695379 0.714603
133 2 0.408036 0.0244467 0.726947
37 2 0.400879 0.630238 0.940618
108 2 0.403567 0.983482 0.926763
15 2 0.228522 0.675896 0.852923
25 1 0.0175338 0.0946594 0.0555954
109 2 0.742302 0.417765 0.156251
11 1 0.63695 0.121487 0.0808678
99 2 0.636999 0.0842822 0.200853
135 2 0.915596 0.0582756 0.12282
74 2 0.670066 0.240948 0.0798399
63 1 0.737974 0.343457 0.0573202
126 2 0.818397 0.519094 0.314865
51 2 0.598074 0.194955 0.371506
88 2 0.751557 0.318605 0.331432
84 1 0.696183 0.252123 0.422478
17 1 0.736385 0.433185 0.279399
122 2 0.620209 0.467033 0.314627
5 2 0.88559 0.0550813 0.327777
93 1 0.0733244 0.25325 0.412491
81 2 0.956642 0.211348 0.42839
43 2 0.929783 0.0485708 0.53312
4 2 0.658233 0.327273 0.514022
103 2 0.664816 0.501028 0.602205
129 2 0.767042 0.158727 0.465185
22 1 0.879175 0.112521 0.438286
7 1 0.583391 0.413176 0.569375
144 2 0.110801 0.336318 0.497725
2 1 0.778358 0.48797 0.656178
76 2 0.677973 0.201851 0.70082
13 1 0.79234 0.246839 0.72397
23 2 0.78328 0.370704 0.702596
106 2 0.885098 0.193802 0.658221
86 1 0.971873 0.105369 0.638235
6 2 0.96851 0.0186137 0.727537
30 2 0.675188 0.395294 0.96131
111 2 0.984477 0.365891 0.882821
57 1 0.914996 0.26955 0.926593
98 2 0.980302 0.167324 0.959261
123 2 0.70496 0.060257 0.996306
35 2 0.827468 0.234877 0.843769
85 1 0.0767291 0.449693 0.862853
119 2 0.854774 0.31128 0.0282294
145 2 0.93607 0.819587 0.0774311
141 2 0.756636 0.736913 0.0848722
18 1 0.846054 0.783988 0.15745
147 2 0.882049 0.698433 0.239265
53 2 0.819022 0.894893 0.211771
105 2 0.743892 0.699263 0.397255
150 2 0.0171148 0.925335 0.238975
82 1 0.905675 0.608552 0.32376
47 1 0.629125 0.732619 0.373874
66 2 0.948423 0.626344 0.441012
8 1 0.904192 0.985935 0.22535
46 2 0.0873616 0.732036 0.203201
143 2 0.0148105 0.557475 0.2713
91 1 0.968753 0.571491 0.551546
29 2 0.950938 0.652905 0.644663
64 2 0.874849 0.491274 0.576049
134 2 0.0873867 0.525963 0.552039
69 2 0.878938 0.835865 0.72078
27 1 0.654621 0.61737 0.795758
130 2 0.762205 0.571525 0.749529
26 1 0.891885 0.94035 0.788778
114 2 0.0614139 0.757751 0.769934
45 1 0.975655 0.768909 0.679102
60 2 0.787703 0.00430857 0.813833
59 1 0.696646 0.985681 0.896523
38 1 0.676482 0.764871 0.993749
100 2 0.667253 0.678916 0.904639
3 2 0.944122 0.9045 0.896038
107 2 0.715432 0.869884 0.939586
73 1 0.014962 0.870133 0.994157
1 2 0.0579485 0.575287 0.866013
31 2 0.067079 0.979755 0.0310492
10 2 0.08868 0.775003 0.960942
71 1 0.10585 0.693717 0.867309
