ITEM: TIMESTEP
2
ITEM: NUMBER OF ATOMS
150
ITEM: BOX BOUNDS pp pp pp
0.0000000000000000e+00 1.3084244647717551e+01
0.0000000000000000e+00 1.3084244647717551e+01
0.0000000000000000e+00 1.3084244647717551e+01
ITEM: ATOMS id type xs ys zs
70 2 0.0353213 0.291685 0.0105719
128 2 0.170069 0.437276 0.969562
40 1 0.200653 0.0330533 0.0855348
32 1 0.0155554 0.184953 0.0691887
50 1 0.0532268 0.40102 0.952912
101 2 0.194206 0.981237 0.966948
95 2 0.947758 0.0969718 0.00822622
62 2 0.123095 0.127544 0.0965335
124 2 0.320141 0.062092 0.105332
55 1 0.424716 0.00771303 0.146509
54 1 0.362429 0.438334 0.244144
21 2 0.248587 0.443471 0.197591
14 2 0.949316 0.216815 0.170129
68 2 0.0890006 0.401706 0.315801
72 2 0.071602 0.345504 0.498627
94 1 0.0530253 0.0523795 0.41475
36 2 0.171587 0.0489634 0.449037
146 2 0.364536 0.387184 0.357444
19 1 0.999729 0.38201 0.402424
20 1 0.281674 0.996209 0.47509
113 2 0.37516 0.0811177 0.480044
79 2 0.957015 0.0727744 0.496871
42 2 0.0404406 0.138406 0.327666
127 2 0.145595 0.22888 0.654777
33 1 0.0856215 0.332198 0.620272
116 2 0.341096 0.149882 0.658299
112 2 0.96343 0.346124 0.656593
131 2 0.413993 0.277226 0.526342
56 2 0.152386 0.426811 0.667178
52 1 0.423279 0.158783 0.565099
139 2 0.207721 0.0881404 0.792857
117 2 0.285977 0.279118 0.791035
77 1 0.252692 0.989164 0.858009
110 2 0.0260775 0.377869 0.834314
16 1 0.387615 0.347876 0.808889
9 2 0.37096 0.0213236 0.88803
149 2 0.413447 0.426573 0.716487
140 2 0.365601 0.413758 0.912097
34 1 0.239778 0.185258 0.723015
83 1 0.359746 0.697968 0.0311208
65 1 0.273891 0.493845 0.934559
104 2 0.309844 0.585356 0.0126421
138 2 0.267676 0.772838 0.0699752
148 2 0.972897 0.49522 0.98117
142 2 0.41552 0.728242 0.921426
96 1 0.140364 0.48416 0.240724
78 1 0.189389 0.810332 0.157832
118 2 0.248531 0.76965 0.267379
125 2 0.38783 0.904946 0.210453
115 2 0.0524039 0.507367 0.158659
87 2 0.0749486 0.76551 0.15315
121 2 0.44218 0.69124 0.124844
61 2 0.402614 0.555516 0.258913
39 2 0.179027 0.933415 0.162535
92 1 0.948816 0.751395 0.176629
102 2 0.945752 0.759642 0.301069
58 1 0.355585 0.834085 0.30496
89 1 0.938215 0.523534 0.101301
137 2 0.440633 0.746339 0.316417
132 2 0.167142 0.589187 0.304771
90 2 0.113087 0.758379 0.408567
80 1 0.204891 0.691069 0.362
67 1 0.00364396 0.816431 0.396743
41 2 0.289012 0.675142 0.450914
12 2 0.0262501 0.93515 0.369972
44 2 0.314712 0.904876 0.396475
24 2 0.938438 0.804341 0.502185
120 2 0.342642 0.766264 0.629065
75 1 0.322658 0.658535 0.570073
28 2 0.226507 0.606956 0.629323
48 1 0.324213 0.879758 0.674508
49 2 0.43528 0.934299 0.689401
97 1 0.174186 0.538222 0.717821
136 2 0.420209 0.585501 0.592179
133 2 0.266016 0.942885 0.585928
37 2 0.245731 0.536612 0.81947
108 2 0.263521 0.890685 0.782403
15 2 0.0644278 0.584929 0.750062
25 1 0.867182 0.0213408 0.948337
109 2 0.553639 0.340272 0.0122552
11 1 0.486432 0.0277723 0.934448
99 2 0.486422 0.964658 0.0463447
135 2 0.778338 0.980304 0.0318381
74 2 0.513001 0.144274 0.965174
63 1 0.559898 0.251521 0.924185
126 2 0.629293 0.442822 0.176076
51 2 0.484554 0.0839784 0.222232
88 2 0.597211 0.242007 0.183296
84 1 0.559907 0.167121 0.275553
17 1 0.559782 0.350471 0.134655
122 2 0.444254 0.375245 0.176318
5 2 0.735183 0.953274 0.230197
93 1 0.933353 0.196512 0.289354
81 2 0.843374 0.11271 0.302524
43 2 0.790359 0.973435 0.429229
4 2 0.505982 0.24416 0.35683
103 2 0.542393 0.41692 0.454711
129 2 0.64825 0.102952 0.333827
22 1 0.750406 0.0335511 0.325515
7 1 0.453912 0.335128 0.424706
144 2 0.921701 0.293696 0.363952
2 1 0.636532 0.42458 0.537495
76 2 0.545205 0.141347 0.584207
13 1 0.66193 0.18514 0.597988
23 2 0.655921 0.306666 0.571957
106 2 0.756201 0.135136 0.533253
86 1 0.839494 0.0428475 0.524602
6 2 0.832021 0.971699 0.627707
30 2 0.489414 0.278918 0.825348
111 2 0.840304 0.291731 0.802012
57 1 0.763653 0.195039 0.818506
98 2 0.818296 0.0907356 0.857695
123 2 0.559046 0.97993 0.84497
35 2 0.698877 0.171322 0.715429
85 1 0.917745 0.381232 0.766549
119 2 0.67849 0.23159 0.899913
145 2 0.796148 0.746652 0.956502
141 2 0.60726 0.685847 0.93536
18 1 0.695798 0.708558 0.0226943
147 2 0.711367 0.611273 0.0965175
53 2 0.676852 0.810342 0.0938869
105 2 0.593562 0.620861 0.248779
150 2 0.872625 0.841281 0.137712
82 1 0.688648 0.54846 0.201865
47 1 0.476243 0.654341 0.240255
66 2 0.768562 0.540665 0.295909
8 1 0.760939 0.897351 0.123214
46 2 0.91584 0.642864 0.12896
143 2 0.853081 0.443884 0.134311
91 1 0.815572 0.534617 0.409827
29 2 0.820308 0.650948 0.452438
64 2 0.737178 0.47305 0.485103
134 2 0.93003 0.484494 0.416656
69 2 0.767567 0.782844 0.60282
27 1 0.482077 0.5246 0.681575
130 2 0.590905 0.487141 0.63511
26 1 0.753413 0.885982 0.669757
114 2 0.912646 0.644847 0.627077
45 1 0.857633 0.720735 0.545949
60 2 0.63865 0.930255 0.662483
59 1 0.545755 0.913064 0.740989
38 1 0.515733 0.698423 0.852385
100 2 0.494512 0.598478 0.781555
3 2 0.776169 0.85301 0.786873
107 2 0.541883 0.793794 0.777287
73 1 0.858971 0.80536 0.867608
1 2 0.88258 0.50111 0.764865
31 2 0.915436 0.908758 0.909315
10 2 0.919388 0.713903 0.809898
71 1 0.940232 0.61061 0.743688
