ITEM: TIMESTEP
2
ITEM: NUMBER OF ATOMS
150
ITEM: BOX BOUNDS pp pp pp
0.0000000000000000e+00 1.3056736834469241e+01
0.0000000000000000e+00 1.3056736834469241e+01
0.0000000000000000e+00 1.3056736834469241e+01
ITEM: ATOMS id type xs ys zs
70 2 0.142915 0.376538 0.155413
128 2 0.293359 0.513946 0.11288
40 1 0.308178 0.129518 0.239892
32 1 0.116413 0.271111 0.215
50 1 0.170442 0.483109 0.0987681
101 2 0.297528 0.0836308 0.123086
95 2 0.0684171 0.178493 0.144472
62 2 0.227085 0.222577 0.25382
124 2 0.427988 0.161988 0.254387
55 1 0.532679 0.115012 0.301343
54 1 0.483095 0.531141 0.400141
21 2 0.375931 0.531907 0.342611
14 2 0.0403264 0.297804 0.305011
68 2 0.202493 0.502036 0.447495
72 2 0.185101 0.426776 0.63123
94 1 0.161708 0.13376 0.550432
36 2 0.284468 0.141716 0.5778
146 2 0.472509 0.482036 0.514968
19 1 0.119768 0.474876 0.536704
20 1 0.395159 0.098876 0.617401
113 2 0.486099 0.182242 0.630494
79 2 0.0766114 0.159303 0.64213
42 2 0.123705 0.207281 0.457924
127 2 0.27853 0.322781 0.797577
33 1 0.206152 0.414533 0.752288
116 2 0.466181 0.236051 0.819179
112 2 0.088094 0.415327 0.800287
131 2 0.520742 0.374297 0.693528
56 2 0.265684 0.516526 0.794761
52 1 0.538848 0.252338 0.718784
139 2 0.33155 0.20781 0.962762
117 2 0.426694 0.392296 0.928039
77 1 0.359689 0.0978193 0.0149535
110 2 0.151521 0.459714 0.97795
16 1 0.521837 0.470858 0.949615
9 2 0.48034 0.10173 0.0512181
149 2 0.542007 0.542552 0.848851
140 2 0.489495 0.534202 0.0468228
34 1 0.369456 0.292428 0.878872
83 1 0.462604 0.796461 0.172158
65 1 0.385169 0.589114 0.0728717
104 2 0.404309 0.687643 0.146812
138 2 0.376233 0.876955 0.217194
148 2 0.10154 0.58168 0.127146
142 2 0.524443 0.82636 0.0676066
96 1 0.270577 0.579619 0.380308
78 1 0.303521 0.913422 0.312155
118 2 0.366995 0.869289 0.418088
125 2 0.498446 0.00434094 0.350125
115 2 0.199277 0.624646 0.290339
87 2 0.190187 0.863453 0.31043
121 2 0.544311 0.779258 0.265958
61 2 0.518569 0.651564 0.4136
39 2 0.288405 0.035774 0.319921
92 1 0.0662202 0.843956 0.328215
102 2 0.0578996 0.837499 0.451704
58 1 0.477301 0.934134 0.451157
89 1 0.0797624 0.62199 0.24256
137 2 0.566165 0.847693 0.45174
132 2 0.299253 0.678692 0.456282
90 2 0.224704 0.839677 0.556231
80 1 0.326412 0.786594 0.510447
67 1 0.112515 0.894384 0.546834
41 2 0.413782 0.787596 0.598538
12 2 0.138673 0.0135049 0.521401
44 2 0.44099 0.00824836 0.543088
24 2 0.0484796 0.884989 0.652907
120 2 0.446121 0.870936 0.785485
75 1 0.447362 0.766358 0.717365
28 2 0.360677 0.691642 0.766805
48 1 0.430531 0.987954 0.825265
49 2 0.548309 0.033598 0.842991
97 1 0.288579 0.627944 0.845733
136 2 0.557498 0.708841 0.734229
133 2 0.376294 0.0499238 0.730936
37 2 0.343051 0.627134 0.959171
108 2 0.361678 0.00689203 0.928146
15 2 0.175391 0.679295 0.859022
25 1 0.983713 0.102746 0.090337
109 2 0.677697 0.424386 0.178507
11 1 0.592794 0.135461 0.0922307
99 2 0.611829 0.0947136 0.209334
135 2 0.897963 0.0691761 0.17794
74 2 0.604873 0.258914 0.0966018
63 1 0.678933 0.357133 0.0786755
126 2 0.76913 0.52382 0.334624
51 2 0.573849 0.18858 0.39115
88 2 0.718012 0.327588 0.355587
84 1 0.662217 0.256918 0.446379
17 1 0.689682 0.436066 0.297678
122 2 0.57772 0.469284 0.347627
5 2 0.843782 0.0491467 0.378988
93 1 0.029608 0.285081 0.42467
81 2 0.929404 0.217233 0.454607
43 2 0.906478 0.066939 0.577637
4 2 0.615468 0.336846 0.527936
103 2 0.648875 0.514296 0.613371
129 2 0.742877 0.177629 0.497191
22 1 0.851793 0.12111 0.479944
7 1 0.559758 0.43045 0.588926
144 2 0.0385408 0.38622 0.496536
2 1 0.754966 0.521055 0.681935
76 2 0.661382 0.2347 0.732416
13 1 0.777777 0.279495 0.746122
23 2 0.770837 0.402889 0.721877
106 2 0.871655 0.225633 0.683388
86 1 0.957662 0.135296 0.671834
6 2 0.953991 0.06562 0.776418
30 2 0.632325 0.410732 0.973072
111 2 0.967151 0.372619 0.955549
57 1 0.881767 0.281986 0.969298
98 2 0.93275 0.171869 0.000329592
123 2 0.669807 0.0941789 0.998582
35 2 0.813511 0.270826 0.865484
85 1 0.0453703 0.457538 0.909863
119 2 0.795287 0.318782 0.0543986
145 2 0.904361 0.841542 0.101474
141 2 0.714785 0.784374 0.0955894
18 1 0.81107 0.79866 0.172142
147 2 0.831186 0.691647 0.228667
53 2 0.796113 0.896643 0.251082
105 2 0.70798 0.709301 0.377623
150 2 0.988052 0.934846 0.293812
82 1 0.810225 0.64314 0.340974
47 1 0.591044 0.748657 0.378454
66 2 0.895061 0.651291 0.432504
8 1 0.876941 0.991123 0.274178
46 2 0.0388914 0.738606 0.266937
143 2 0.0140318 0.538235 0.302812
91 1 0.934022 0.62786 0.548843
29 2 0.927857 0.733495 0.606878
64 2 0.850076 0.554719 0.609142
134 2 0.0488023 0.576785 0.561828
69 2 0.862996 0.887674 0.731939
27 1 0.618778 0.640589 0.820136
130 2 0.725289 0.596529 0.776235
26 1 0.866711 0.984819 0.815419
114 2 0.99411 0.747466 0.794307
45 1 0.953977 0.810764 0.694948
60 2 0.757811 0.0345621 0.825955
59 1 0.660707 0.0223841 0.896007
38 1 0.631358 0.800851 0.00586097
100 2 0.628138 0.705566 0.9261
3 2 0.907198 0.931552 0.92073
107 2 0.660001 0.904094 0.941833
73 1 0.980464 0.886433 0.013404
1 2 0.0115225 0.578229 0.90524
31 2 0.0332424 0.992306 0.0565469
10 2 0.0491198 0.78943 0.975029
71 1 0.0557184 0.696335 0.890714
