ITEM: TIMESTEP
2
ITEM: NUMBER OF ATOMS
150
ITEM: BOX BOUNDS pp pp pp
0.0000000000000000e+00 1.3021418689418812e+01
0.0000000000000000e+00 1.3021418689418812e+01
0.0000000000000000e+00 1.3021418689418812e+01
ITEM: ATOMS id type xs ys zs
70 2 0.137427 0.396286 0.202664
128 2 0.297459 0.523529 0.151202
40 1 0.28368 0.139938 0.275382
32 1 0.103148 0.289914 0.257134
50 1 0.175636 0.498597 0.14372
101 2 0.274432 0.0963626 0.15779
95 2 0.0497834 0.199323 0.187717
62 2 0.208997 0.235136 0.2969
124 2 0.403756 0.170064 0.295331
55 1 0.509896 0.124827 0.343129
54 1 0.454081 0.539668 0.437349
21 2 0.34081 0.555227 0.388243
14 2 0.0292649 0.313844 0.353512
68 2 0.18887 0.51506 0.523662
72 2 0.164227 0.403652 0.682118
94 1 0.147579 0.13501 0.589752
36 2 0.271103 0.125054 0.611708
146 2 0.447084 0.482478 0.548865
19 1 0.0983654 0.471574 0.598446
20 1 0.386868 0.101195 0.655897
113 2 0.473885 0.189736 0.673984
79 2 0.0633957 0.161439 0.681553
42 2 0.125776 0.224326 0.505862
127 2 0.274854 0.347249 0.858196
33 1 0.19841 0.427344 0.799456
116 2 0.461681 0.249296 0.865976
112 2 0.0835477 0.451075 0.848699
131 2 0.497806 0.380834 0.725986
56 2 0.258804 0.53751 0.804743
52 1 0.527843 0.26332 0.760685
139 2 0.327478 0.220488 0.00996351
117 2 0.431356 0.404084 0.979752
77 1 0.347259 0.106082 0.0571593
110 2 0.147783 0.477892 0.0240023
16 1 0.524099 0.489019 0.978681
9 2 0.4667 0.105835 0.0978357
149 2 0.543275 0.546071 0.86892
140 2 0.483597 0.571658 0.0639685
34 1 0.369653 0.306922 0.930372
83 1 0.457125 0.803635 0.203055
65 1 0.368076 0.609359 0.0945842
104 2 0.382449 0.709392 0.167547
138 2 0.376812 0.887402 0.25564
148 2 0.108639 0.600716 0.172287
142 2 0.528444 0.827235 0.101489
96 1 0.235327 0.59607 0.44187
78 1 0.293594 0.917567 0.34434
118 2 0.348122 0.883918 0.459581
125 2 0.484769 0.0121343 0.391186
115 2 0.143186 0.617186 0.362097
87 2 0.183511 0.859515 0.338835
121 2 0.534438 0.77045 0.297762
61 2 0.503336 0.654097 0.454307
39 2 0.266196 0.0391173 0.34843
92 1 0.058307 0.848142 0.352748
102 2 0.0416537 0.841809 0.477346
58 1 0.466093 0.937338 0.489464
89 1 0.0470455 0.626223 0.279536
137 2 0.551539 0.848265 0.483152
132 2 0.269262 0.701414 0.502331
90 2 0.197133 0.860992 0.601514
80 1 0.299605 0.808705 0.555678
67 1 0.0798657 0.902825 0.579855
41 2 0.392236 0.805165 0.638428
12 2 0.101086 0.0234928 0.55043
44 2 0.440743 0.00999438 0.587
24 2 0.00522003 0.878164 0.675833
120 2 0.444884 0.886318 0.824732
75 1 0.435303 0.783394 0.7547
28 2 0.343183 0.720753 0.809834
48 1 0.418804 0.000726616 0.867666
49 2 0.533195 0.048261 0.890658
97 1 0.264937 0.645168 0.868137
136 2 0.540885 0.717637 0.760559
133 2 0.365327 0.0585457 0.771489
37 2 0.309649 0.632544 0.984944
108 2 0.346242 0.0176668 0.968253
15 2 0.149534 0.691745 0.867708
25 1 0.968744 0.121316 0.132044
109 2 0.638542 0.42401 0.210564
11 1 0.584759 0.137541 0.127451
99 2 0.594039 0.119996 0.251011
135 2 0.88323 0.0845397 0.217691
74 2 0.606057 0.2571 0.100185
63 1 0.669616 0.365047 0.106016
126 2 0.736836 0.53057 0.360309
51 2 0.549902 0.194438 0.437293
88 2 0.687044 0.332321 0.386073
84 1 0.645363 0.261901 0.481159
17 1 0.655196 0.441191 0.332339
122 2 0.541887 0.474457 0.377125
5 2 0.842486 0.043037 0.416595
93 1 0.0223432 0.289517 0.474188
81 2 0.927227 0.211923 0.49421
43 2 0.88313 0.0742365 0.620494
4 2 0.601032 0.343462 0.564299
103 2 0.624769 0.519578 0.646781
129 2 0.731503 0.181962 0.52265
22 1 0.841058 0.122767 0.512687
7 1 0.536325 0.43562 0.621429
144 2 0.0197162 0.390452 0.545514
2 1 0.739084 0.525483 0.699195
76 2 0.652606 0.254007 0.772631
13 1 0.771177 0.296267 0.790444
23 2 0.764181 0.416448 0.75472
106 2 0.865972 0.235938 0.732478
86 1 0.943571 0.138802 0.711876
6 2 0.938898 0.0628085 0.810502
30 2 0.632711 0.436384 0.0103722
111 2 0.958868 0.395752 0.00234213
57 1 0.872612 0.305127 0.0157237
98 2 0.919654 0.19167 0.040691
123 2 0.656332 0.0684366 0.0528396
35 2 0.803533 0.29608 0.911281
85 1 0.0386141 0.483276 0.961554
119 2 0.790702 0.336024 0.105089
145 2 0.915781 0.831986 0.12465
141 2 0.723223 0.784901 0.109833
18 1 0.816409 0.797626 0.19241
147 2 0.815158 0.695846 0.262852
53 2 0.803467 0.898968 0.268288
105 2 0.698077 0.712069 0.419293
150 2 0.992504 0.948381 0.316318
82 1 0.796122 0.640446 0.373266
47 1 0.579005 0.74629 0.414601
66 2 0.888872 0.650022 0.457608
8 1 0.875075 0.995166 0.305743
46 2 0.0175923 0.747362 0.293524
143 2 0.960528 0.541109 0.294426
91 1 0.912875 0.622017 0.576975
29 2 0.88353 0.724409 0.643364
64 2 0.824497 0.540038 0.610785
134 2 0.0240437 0.574206 0.615474
69 2 0.827985 0.894408 0.767533
27 1 0.611654 0.647403 0.836469
130 2 0.721357 0.615894 0.784852
26 1 0.846804 0.987741 0.848924
114 2 0.954456 0.748396 0.827798
45 1 0.911406 0.810394 0.727921
60 2 0.742574 0.0541648 0.866029
59 1 0.645922 0.0215911 0.937099
38 1 0.629832 0.799891 0.0291896
100 2 0.622048 0.705666 0.947304
3 2 0.885117 0.936166 0.955826
107 2 0.650859 0.89801 0.954082
73 1 0.973424 0.902575 0.0391742
1 2 0.00250044 0.60391 0.963661
31 2 0.0129976 0.0115822 0.0879119
10 2 0.050934 0.821725 0.98351
71 1 0.0368218 0.716083 0.916256
