ITEM: TIMESTEP
2
ITEM: NUMBER OF ATOMS
150
ITEM: BOX BOUNDS pp pp pp
0.0000000000000000e+00 1.3113771804697674e+01
0.0000000000000000e+00 1.3113771804697674e+01
0.0000000000000000e+00 1.3113771804697674e+01
ITEM: ATOMS id type xs ys zs
70 2 0.105831 0.353057 0.129492
128 2 0.228528 0.498784 0.0485339
40 1 0.247731 0.095335 0.19225
32 1 0.0680661 0.243794 0.173245
50 1 0.115594 0.447849 0.0509663
101 2 0.234456 0.0553947 0.0743871
95 2 0.0196271 0.164583 0.0888129
62 2 0.168806 0.185222 0.215981
124 2 0.365035 0.133535 0.20644
55 1 0.471597 0.0953484 0.257375
54 1 0.440886 0.505744 0.354576
21 2 0.332261 0.501755 0.296053
14 2 0.989087 0.261868 0.267047
68 2 0.159458 0.481888 0.40474
72 2 0.156122 0.423326 0.592005
94 1 0.0981884 0.0871448 0.508253
36 2 0.219554 0.0943927 0.535365
146 2 0.439793 0.444417 0.462278
19 1 0.0804616 0.449936 0.495299
20 1 0.33225 0.0639568 0.577782
113 2 0.419023 0.153397 0.578284
79 2 0.0144081 0.115608 0.597369
42 2 0.0652975 0.161946 0.416241
127 2 0.230022 0.293569 0.747684
33 1 0.166288 0.395507 0.712482
116 2 0.414365 0.20388 0.769065
112 2 0.047064 0.39888 0.751557
131 2 0.475453 0.337972 0.635688
56 2 0.22394 0.488553 0.773059
52 1 0.481901 0.216685 0.665471
139 2 0.27595 0.167931 0.909508
117 2 0.367846 0.351113 0.888071
77 1 0.303444 0.0630016 0.971366
110 2 0.0749637 0.401618 0.943028
16 1 0.459834 0.433345 0.90465
9 2 0.423915 0.0727982 0.00604165
149 2 0.478433 0.511929 0.809531
140 2 0.4272 0.501516 0.0032994
34 1 0.316261 0.253665 0.829209
83 1 0.417921 0.75964 0.132485
65 1 0.326316 0.570784 0.0247509
104 2 0.352856 0.657136 0.108373
138 2 0.337314 0.845226 0.173604
148 2 0.0365375 0.538599 0.0841734
142 2 0.485232 0.783192 0.0316248
96 1 0.223944 0.553087 0.327082
78 1 0.264389 0.877485 0.267621
118 2 0.326131 0.842776 0.375064
125 2 0.450311 0.995094 0.328229
115 2 0.149381 0.585652 0.235407
87 2 0.153317 0.826986 0.263677
121 2 0.495289 0.73733 0.227604
61 2 0.466693 0.624739 0.383537
39 2 0.242686 0.998441 0.27002
92 1 0.0299643 0.810237 0.269423
102 2 0.0139258 0.794173 0.392858
58 1 0.432136 0.90977 0.415898
89 1 0.0297781 0.592044 0.196197
137 2 0.52109 0.824309 0.404536
132 2 0.25283 0.659268 0.389105
90 2 0.177359 0.80363 0.508519
80 1 0.280918 0.755675 0.460534
67 1 0.0610998 0.848177 0.495106
41 2 0.367588 0.750686 0.549454
12 2 0.0740505 0.969813 0.473874
44 2 0.384143 0.968877 0.513614
24 2 0.991638 0.833682 0.595631
120 2 0.380987 0.840375 0.735473
75 1 0.394751 0.734323 0.671319
28 2 0.304178 0.660146 0.713745
48 1 0.374413 0.954331 0.784937
49 2 0.493274 0.984772 0.810835
97 1 0.240271 0.607446 0.805423
136 2 0.503179 0.682636 0.706448
133 2 0.322979 0.0244158 0.695576
37 2 0.302066 0.62137 0.91258
108 2 0.307255 0.969589 0.888879
15 2 0.125285 0.650379 0.82481
25 1 0.943174 0.0811191 0.0354322
109 2 0.610085 0.393958 0.115343
11 1 0.54194 0.0952114 0.0407791
99 2 0.544855 0.0643784 0.161498
135 2 0.861968 0.0438707 0.123308
74 2 0.56893 0.215218 0.0332482
63 1 0.628284 0.322838 0.0169379
126 2 0.717835 0.511588 0.238685
51 2 0.520442 0.185179 0.326118
88 2 0.670409 0.315704 0.294255
84 1 0.61946 0.23894 0.37838
17 1 0.637555 0.419112 0.232044
122 2 0.533516 0.458078 0.288782
5 2 0.841277 0.0381089 0.324516
93 1 0.983834 0.253433 0.39045
81 2 0.874745 0.208191 0.427686
43 2 0.838384 0.0430177 0.527026
4 2 0.586208 0.306997 0.476277
103 2 0.61006 0.479831 0.568516
129 2 0.691218 0.144446 0.414015
22 1 0.80706 0.103572 0.423011
7 1 0.524172 0.396145 0.537909
144 2 0.0171823 0.349042 0.460529
2 1 0.701825 0.475806 0.654088
76 2 0.602316 0.187236 0.679109
13 1 0.714861 0.234157 0.708912
23 2 0.701323 0.357516 0.693139
106 2 0.817243 0.192507 0.650111
86 1 0.894694 0.0971875 0.625564
6 2 0.890642 0.0196806 0.722002
30 2 0.569901 0.377984 0.922241
111 2 0.891034 0.343236 0.873932
57 1 0.819659 0.24972 0.917197
98 2 0.881985 0.147654 0.950228
123 2 0.617594 0.0358922 0.962805
35 2 0.738794 0.215557 0.829136
85 1 0.985619 0.422449 0.857441
119 2 0.749427 0.296958 0.00807446
145 2 0.866704 0.817104 0.0631358
141 2 0.678153 0.755567 0.0662694
18 1 0.775351 0.782152 0.139797
147 2 0.800956 0.689585 0.217314
53 2 0.765509 0.885379 0.210855
105 2 0.654159 0.672071 0.340208
150 2 0.965395 0.909718 0.233524
82 1 0.75886 0.609461 0.30314
47 1 0.540205 0.717033 0.342839
66 2 0.809815 0.573325 0.410522
8 1 0.856219 0.970305 0.222758
46 2 0.00596174 0.713508 0.197855
143 2 0.96187 0.533164 0.277775
91 1 0.872373 0.571978 0.517732
29 2 0.862853 0.689571 0.557891
64 2 0.81013 0.504626 0.60301
134 2 0.992769 0.535951 0.521093
69 2 0.810339 0.842425 0.687
27 1 0.559831 0.604932 0.787232
130 2 0.663991 0.557228 0.739709
26 1 0.811805 0.936297 0.767875
114 2 0.944711 0.701793 0.741025
45 1 0.898885 0.76714 0.645655
60 2 0.699266 0.985122 0.781012
59 1 0.606542 0.966693 0.860188
38 1 0.593234 0.753799 0.975124
100 2 0.584469 0.654579 0.900006
3 2 0.849077 0.893632 0.877993
107 2 0.613372 0.848261 0.89704
73 1 0.93098 0.860231 0.966691
1 2 0.962709 0.545675 0.867151
31 2 0.986251 0.969843 0.99522
10 2 0.990515 0.760452 0.922053
71 1 0.00256729 0.662898 0.844695
