ITEM: TIMESTEP
2
ITEM: NUMBER OF ATOMS
150
ITEM: BOX BOUNDS pp pp pp
0.0000000000000000e+00 1.3024504438534240e+01
0.0000000000000000e+00 1.3024504438534240e+01
0.0000000000000000e+00 1.3024504438534240e+01
ITEM: ATOMS id type xs ys zs
70 2 0.0274821 0.219728 0.0522622
128 2 0.188011 0.351371 0.0197297
40 1 0.20672 0.967257 0.121989
32 1 0.0160021 0.111354 0.112242
50 1 0.0671018 0.325679 0.000740244
101 2 0.202562 0.923505 0.00382575
95 2 0.960855 0.014662 0.0507337
62 2 0.128432 0.0620691 0.139937
124 2 0.324755 0.00533676 0.141689
55 1 0.430826 0.960349 0.191263
54 1 0.383809 0.362038 0.281672
21 2 0.270612 0.361738 0.230228
14 2 0.956476 0.144469 0.216437
68 2 0.118336 0.320809 0.351125
72 2 0.10827 0.304962 0.542891
94 1 0.0661697 0.972484 0.463404
36 2 0.185341 0.00570732 0.48238
146 2 0.392287 0.317465 0.399039
19 1 0.035007 0.312843 0.442967
20 1 0.296558 0.952796 0.505959
113 2 0.393657 0.0323068 0.510379
79 2 0.975064 0.992117 0.549234
42 2 0.0201911 0.0311811 0.363327
127 2 0.200203 0.167197 0.679754
33 1 0.130021 0.268399 0.659165
116 2 0.379908 0.0719358 0.702739
112 2 0.0119195 0.251923 0.699693
131 2 0.436146 0.219873 0.579786
56 2 0.192139 0.359834 0.717488
52 1 0.449512 0.0963668 0.602207
139 2 0.238432 0.0457909 0.842698
117 2 0.344875 0.224175 0.818832
77 1 0.270679 0.937369 0.899025
110 2 0.0550444 0.299388 0.878683
16 1 0.430423 0.309712 0.850685
9 2 0.390596 0.956581 0.934245
149 2 0.444105 0.398014 0.763138
140 2 0.38931 0.361479 0.957462
34 1 0.285546 0.128983 0.762447
83 1 0.371959 0.623875 0.0790533
65 1 0.284816 0.423544 0.987083
104 2 0.312258 0.513753 0.0699618
138 2 0.282756 0.703907 0.11726
148 2 0.989895 0.4249 0.0186936
142 2 0.418469 0.64293 0.964231
96 1 0.159201 0.402622 0.267364
78 1 0.196962 0.743341 0.198333
118 2 0.254455 0.706877 0.312152
125 2 0.403737 0.849348 0.244097
115 2 0.060265 0.413911 0.193048
87 2 0.0812157 0.701014 0.188623
121 2 0.461189 0.623145 0.168431
61 2 0.419664 0.482886 0.295033
39 2 0.192601 0.867682 0.198098
92 1 0.960694 0.676425 0.223506
102 2 0.967203 0.692161 0.348638
58 1 0.363908 0.779435 0.339037
89 1 0.948013 0.444427 0.137377
137 2 0.444548 0.685845 0.355184
132 2 0.187128 0.513276 0.325821
90 2 0.125061 0.656787 0.458517
80 1 0.222546 0.609088 0.397729
67 1 0.0244216 0.731087 0.454261
41 2 0.308157 0.594771 0.487255
12 2 0.0664924 0.848306 0.443167
44 2 0.325444 0.859112 0.426171
24 2 0.9532 0.723948 0.556572
120 2 0.350534 0.714708 0.655505
75 1 0.348317 0.598801 0.606786
28 2 0.265467 0.54174 0.681192
48 1 0.338482 0.828245 0.70708
49 2 0.454941 0.867478 0.732902
97 1 0.198687 0.47612 0.762794
136 2 0.45841 0.541465 0.6215
133 2 0.285614 0.898507 0.618393
37 2 0.249279 0.475652 0.877185
108 2 0.27523 0.844363 0.814746
15 2 0.0791458 0.51191 0.767747
25 1 0.8874 0.933091 0.987169
109 2 0.609618 0.283791 0.065202
11 1 0.502298 0.994462 0.979095
99 2 0.509851 0.945976 0.0951749
135 2 0.79258 0.898734 0.0635894
74 2 0.517049 0.117783 0.995164
63 1 0.601328 0.207554 0.967452
126 2 0.634448 0.376655 0.24236
51 2 0.476078 0.0355649 0.279548
88 2 0.617747 0.167376 0.237553
84 1 0.572088 0.0964828 0.331646
17 1 0.585567 0.277764 0.186342
122 2 0.462591 0.293327 0.21289
5 2 0.757708 0.898185 0.264655
93 1 0.93706 0.123285 0.335989
81 2 0.825897 0.0704301 0.351371
43 2 0.814089 0.903861 0.46386
4 2 0.539072 0.180334 0.418011
103 2 0.567667 0.358643 0.505207
129 2 0.643518 0.00968613 0.386102
22 1 0.758969 0.965408 0.369104
7 1 0.479978 0.274789 0.476187
144 2 0.9598 0.216009 0.415933
2 1 0.665431 0.361141 0.585529
76 2 0.57068 0.0744473 0.619417
13 1 0.686245 0.118867 0.639468
23 2 0.677262 0.242272 0.621847
106 2 0.776291 0.0596045 0.575451
86 1 0.855507 0.961234 0.569149
6 2 0.843532 0.887577 0.668234
30 2 0.54598 0.264602 0.870522
111 2 0.875716 0.198896 0.845107
57 1 0.78888 0.109577 0.862008
98 2 0.839968 0.99879 0.891935
123 2 0.578173 0.959581 0.88631
35 2 0.721438 0.102931 0.757668
85 1 0.953587 0.286733 0.804967
119 2 0.709483 0.149258 0.949448
145 2 0.807717 0.667289 0.00608795
141 2 0.613924 0.61508 0.990024
18 1 0.705878 0.635668 0.071929
147 2 0.71633 0.540409 0.150068
53 2 0.688566 0.738409 0.143938
105 2 0.60696 0.558705 0.312833
150 2 0.881928 0.764443 0.184078
82 1 0.696002 0.483141 0.258936
47 1 0.488951 0.588427 0.288407
66 2 0.789384 0.465907 0.338126
8 1 0.774312 0.827286 0.164374
46 2 0.933042 0.563802 0.176582
143 2 0.856701 0.366939 0.160669
91 1 0.843134 0.459006 0.449511
29 2 0.84168 0.577026 0.489383
64 2 0.77044 0.394907 0.528719
134 2 0.959654 0.413537 0.448631
69 2 0.764328 0.70626 0.637003
27 1 0.5201 0.486271 0.715697
130 2 0.627523 0.43486 0.678889
26 1 0.765623 0.802899 0.716377
114 2 0.90417 0.565143 0.675368
45 1 0.861627 0.645035 0.590073
60 2 0.656165 0.858205 0.728626
59 1 0.55829 0.868393 0.803124
38 1 0.528745 0.646237 0.904796
100 2 0.535864 0.572757 0.804667
3 2 0.80287 0.758021 0.82593
107 2 0.548312 0.76486 0.87305
73 1 0.88051 0.714303 0.914873
1 2 0.909621 0.403958 0.794646
31 2 0.93686 0.821266 0.953363
10 2 0.937145 0.615031 0.863643
71 1 0.95398 0.521277 0.78123
