ITEM: TIMESTEP
2
ITEM: NUMBER OF ATOMS
150
ITEM: BOX BOUNDS pp pp pp
0.0000000000000000e+00 1.3043502295956202e+01
0.0000000000000000e+00 1.3043502295956202e+01
0.0000000000000000e+00 1.3043502295956202e+01
ITEM: ATOMS id type xs ys zs
70 2 0.167965 0.359056 0.153136
128 2 0.307342 0.511144 0.124719
40 1 0.347871 0.111075 0.241211
32 1 0.157069 0.243474 0.196044
50 1 0.193765 0.467935 0.100289
101 2 0.329704 0.0420538 0.136917
95 2 0.115079 0.155925 0.116984
62 2 0.26972 0.205675 0.235726
124 2 0.468606 0.14083 0.253864
55 1 0.574059 0.0967239 0.306283
54 1 0.504875 0.507552 0.418447
21 2 0.395462 0.508592 0.359522
14 2 0.0804494 0.244732 0.293787
68 2 0.243666 0.510395 0.495779
72 2 0.206883 0.376076 0.640274
94 1 0.195525 0.104802 0.55641
36 2 0.314435 0.103387 0.593852
146 2 0.493443 0.451058 0.529747
19 1 0.153036 0.442466 0.547833
20 1 0.424226 0.0684664 0.640996
113 2 0.509111 0.159095 0.653061
79 2 0.106408 0.129213 0.643066
42 2 0.176309 0.182117 0.461172
127 2 0.304827 0.279048 0.812941
33 1 0.23075 0.368665 0.76319
116 2 0.500041 0.215104 0.841016
112 2 0.114095 0.375722 0.81181
131 2 0.558849 0.351039 0.706826
56 2 0.290822 0.473572 0.798223
52 1 0.569239 0.229484 0.73774
139 2 0.363295 0.155336 0.974001
117 2 0.43043 0.353804 0.960925
77 1 0.390944 0.0449576 0.0283873
110 2 0.176982 0.448059 0.978311
16 1 0.525791 0.43464 0.971804
9 2 0.51226 0.0462718 0.0622253
149 2 0.539935 0.506057 0.870101
140 2 0.50143 0.51342 0.066305
34 1 0.39324 0.250758 0.898548
83 1 0.496105 0.777246 0.182246
65 1 0.397425 0.581829 0.0769388
104 2 0.421295 0.683544 0.145013
138 2 0.424878 0.867853 0.233094
148 2 0.113186 0.558615 0.129202
142 2 0.566597 0.802738 0.0821525
96 1 0.289345 0.564687 0.393476
78 1 0.342855 0.903672 0.319975
118 2 0.397706 0.8635 0.431306
125 2 0.543144 0.00459113 0.384995
115 2 0.198212 0.566327 0.309867
87 2 0.22975 0.8566 0.305408
121 2 0.572379 0.743297 0.276721
61 2 0.542343 0.626436 0.433399
39 2 0.331151 0.0269238 0.332791
92 1 0.107733 0.826914 0.318618
102 2 0.0962677 0.817117 0.44327
58 1 0.511697 0.918619 0.46868
89 1 0.0914248 0.595116 0.247008
137 2 0.590722 0.82408 0.458921
132 2 0.325545 0.679467 0.431136
90 2 0.2543 0.809959 0.566027
80 1 0.357328 0.768292 0.511195
67 1 0.145394 0.868447 0.545561
41 2 0.444682 0.747982 0.596739
12 2 0.171181 0.987249 0.518302
44 2 0.476321 0.97627 0.572389
24 2 0.0735392 0.861138 0.645465
120 2 0.458271 0.830975 0.782356
75 1 0.468932 0.72398 0.717634
28 2 0.377929 0.648748 0.757408
48 1 0.453319 0.942593 0.837255
49 2 0.571612 0.980979 0.859619
97 1 0.308696 0.589108 0.842035
136 2 0.575898 0.66978 0.75333
133 2 0.402655 0.0209521 0.754287
37 2 0.360695 0.600387 0.956595
108 2 0.388189 0.95251 0.94369
15 2 0.195303 0.641041 0.847241
25 1 0.0228693 0.0817327 0.0757755
109 2 0.686159 0.369117 0.193699
11 1 0.628583 0.0790838 0.0939822
99 2 0.642446 0.0481022 0.213775
135 2 0.944692 0.0556025 0.171127
74 2 0.636137 0.202786 0.0879594
63 1 0.695016 0.312789 0.083354
126 2 0.774017 0.523657 0.296825
51 2 0.631626 0.186476 0.368636
88 2 0.762068 0.335094 0.38073
84 1 0.705385 0.247201 0.449067
17 1 0.708607 0.419618 0.304818
122 2 0.599153 0.450508 0.359981
5 2 0.887565 0.0439031 0.368141
93 1 0.0816419 0.252944 0.417055
81 2 0.977501 0.200178 0.460703
43 2 0.940114 0.0426848 0.56907
4 2 0.638729 0.308012 0.534672
103 2 0.67296 0.491548 0.614052
129 2 0.783263 0.163638 0.498362
22 1 0.892577 0.109169 0.473882
7 1 0.586012 0.403239 0.597115
144 2 0.103837 0.365059 0.463637
2 1 0.770103 0.488805 0.694497
76 2 0.691706 0.204632 0.743946
13 1 0.809331 0.250815 0.748069
23 2 0.796974 0.367452 0.705259
106 2 0.904656 0.19246 0.691196
86 1 0.98756 0.0999049 0.67183
6 2 0.974795 0.0247492 0.770328
30 2 0.634386 0.377812 0.994864
111 2 0.99002 0.356914 0.970547
57 1 0.904581 0.265119 0.97591
98 2 0.959409 0.154054 0.995212
123 2 0.706218 0.0326504 0.00915167
35 2 0.843345 0.259821 0.867447
85 1 0.0696132 0.43428 0.913524
119 2 0.815186 0.289445 0.0596152
145 2 0.944144 0.812694 0.101221
141 2 0.755998 0.745467 0.104898
18 1 0.849849 0.783795 0.178208
147 2 0.875947 0.700615 0.266037
53 2 0.831568 0.893895 0.23709
105 2 0.735106 0.687077 0.397313
150 2 0.0274091 0.916212 0.284961
82 1 0.836085 0.617398 0.351051
47 1 0.616228 0.719908 0.393458
66 2 0.891545 0.577542 0.455518
8 1 0.918791 0.978987 0.266505
46 2 0.0889092 0.719355 0.260914
143 2 0.995825 0.532414 0.289481
91 1 0.95102 0.582372 0.563992
29 2 0.965749 0.704816 0.584882
64 2 0.871722 0.543642 0.652138
134 2 0.0597163 0.52107 0.577855
69 2 0.88555 0.852791 0.716551
27 1 0.62381 0.595098 0.842191
130 2 0.726811 0.539137 0.800191
26 1 0.889887 0.940091 0.805837
114 2 0.0194208 0.71461 0.775356
45 1 0.981209 0.783305 0.678603
60 2 0.778669 0.993757 0.820604
59 1 0.688838 0.969277 0.902438
38 1 0.667266 0.760416 0.0186901
100 2 0.640349 0.661306 0.947387
3 2 0.927073 0.885716 0.911804
107 2 0.700081 0.849744 0.93772
73 1 0.00880769 0.8556 0.00362876
1 2 0.0277966 0.551563 0.897982
31 2 0.0580599 0.967725 0.034394
10 2 0.0754228 0.758992 0.959938
71 1 0.0761496 0.665993 0.875217
