ITEM: TIMESTEP
2
ITEM: NUMBER OF ATOMS
150
ITEM: BOX BOUNDS pp pp pp
0.0000000000000000e+00 1.3045180281678874e+01
0.0000000000000000e+00 1.3045180281678874e+01
0.0000000000000000e+00 1.3045180281678874e+01
ITEM: ATOMS id type xs ys zs
70 2 0.130811 0.206549 0.141076
128 2 0.285081 0.334162 0.10116
40 1 0.290986 0.959479 0.221963
32 1 0.104163 0.0998894 0.198016
50 1 0.16505 0.308923 0.0808455
101 2 0.281827 0.914238 0.104774
95 2 0.0565756 0.0138049 0.119954
62 2 0.210824 0.0511584 0.241401
124 2 0.410996 0.991853 0.238243
55 1 0.518594 0.9439 0.280777
54 1 0.4751 0.356143 0.386475
21 2 0.368672 0.364538 0.323893
14 2 0.0228199 0.115975 0.289774
68 2 0.200541 0.329947 0.431135
72 2 0.175952 0.259318 0.613364
94 1 0.145346 0.959329 0.534584
36 2 0.267476 0.968591 0.556458
146 2 0.457522 0.303455 0.498845
19 1 0.112047 0.303253 0.514764
20 1 0.376801 0.928915 0.599466
113 2 0.463783 0.0182824 0.616179
79 2 0.0607495 0.98896 0.624095
42 2 0.112754 0.0386443 0.444976
127 2 0.27019 0.157589 0.778325
33 1 0.195499 0.248931 0.735488
116 2 0.448835 0.0685112 0.808001
112 2 0.0784283 0.250622 0.783106
131 2 0.515419 0.206374 0.679313
56 2 0.253454 0.350737 0.780296
52 1 0.521258 0.0832434 0.707309
139 2 0.312666 0.0477646 0.951219
117 2 0.415836 0.230072 0.912098
77 1 0.346278 0.935376 0.999222
110 2 0.145147 0.284959 0.959683
16 1 0.516837 0.301921 0.934647
9 2 0.466529 0.951742 0.0336362
149 2 0.544194 0.378217 0.839898
140 2 0.486256 0.363329 0.040642
34 1 0.35515 0.129803 0.866353
83 1 0.45086 0.616849 0.164854
65 1 0.374063 0.412545 0.0647446
104 2 0.391263 0.509606 0.140553
138 2 0.365968 0.697472 0.211313
148 2 0.0987367 0.412871 0.105397
142 2 0.508216 0.643407 0.0563729
96 1 0.262073 0.414152 0.3641
78 1 0.290419 0.740599 0.300428
118 2 0.355102 0.70201 0.406776
125 2 0.492384 0.837143 0.34086
115 2 0.186995 0.455765 0.275193
87 2 0.177465 0.69109 0.297367
121 2 0.536997 0.604196 0.25647
61 2 0.515379 0.474079 0.402855
39 2 0.27418 0.863468 0.300867
92 1 0.0538979 0.670337 0.308864
102 2 0.0393103 0.665345 0.433409
58 1 0.467753 0.763837 0.43764
89 1 0.0720159 0.453527 0.221344
137 2 0.551155 0.672658 0.443699
132 2 0.292526 0.512591 0.437586
90 2 0.206991 0.663033 0.540171
80 1 0.314409 0.61863 0.497782
67 1 0.0956356 0.719378 0.530885
41 2 0.396484 0.619403 0.59068
12 2 0.123305 0.838902 0.505351
44 2 0.423501 0.836167 0.528531
24 2 0.0297692 0.711628 0.635293
120 2 0.435244 0.706061 0.77258
75 1 0.435459 0.5986 0.708287
28 2 0.353118 0.523476 0.76348
48 1 0.418843 0.82472 0.808385
49 2 0.534508 0.871662 0.825577
97 1 0.278373 0.458192 0.838034
136 2 0.546366 0.541844 0.71809
133 2 0.359499 0.88018 0.713495
37 2 0.335151 0.447436 0.948802
108 2 0.354092 0.844438 0.913569
15 2 0.166947 0.512314 0.852034
25 1 0.974256 0.932722 0.0704198
109 2 0.687515 0.264323 0.165482
11 1 0.582668 0.975723 0.07297
99 2 0.591475 0.916577 0.182796
135 2 0.888315 0.896728 0.15604
74 2 0.598863 0.0961002 0.101884
63 1 0.675159 0.189704 0.0680247
126 2 0.756876 0.363278 0.323578
51 2 0.569326 0.0188469 0.365751
88 2 0.710038 0.157559 0.34197
84 1 0.654718 0.0844732 0.428364
17 1 0.684763 0.269066 0.289288
122 2 0.567375 0.296113 0.32815
5 2 0.842388 0.885571 0.357293
93 1 0.0157667 0.112367 0.412977
81 2 0.912155 0.0522495 0.447435
43 2 0.893009 0.89457 0.559209
4 2 0.605448 0.164681 0.509652
103 2 0.634939 0.344949 0.587854
129 2 0.725758 0.999533 0.486127
22 1 0.838396 0.95152 0.462372
7 1 0.547758 0.257793 0.57089
144 2 0.0314835 0.219063 0.472194
2 1 0.740864 0.347001 0.655641
76 2 0.645012 0.0659403 0.721396
13 1 0.763119 0.110596 0.731514
23 2 0.760942 0.230946 0.697175
106 2 0.857655 0.0539934 0.670708
86 1 0.941969 0.962036 0.65478
6 2 0.937587 0.88914 0.755756
30 2 0.62062 0.23991 0.966536
111 2 0.95584 0.201979 0.940121
57 1 0.868937 0.111516 0.95321
98 2 0.917017 0.998786 0.979547
123 2 0.655975 0.943539 0.977027
35 2 0.799331 0.10447 0.850245
85 1 0.0365924 0.286885 0.895442
119 2 0.787207 0.14306 0.0421683
145 2 0.896656 0.66982 0.0928003
141 2 0.702616 0.62314 0.0808325
18 1 0.797863 0.633088 0.159124
147 2 0.817182 0.526565 0.218442
53 2 0.786292 0.729987 0.238695
105 2 0.703359 0.548186 0.373264
150 2 0.982886 0.765516 0.270421
82 1 0.802694 0.478485 0.33243
47 1 0.58291 0.574843 0.371149
66 2 0.889166 0.484165 0.420307
8 1 0.870986 0.821284 0.254578
46 2 0.0281335 0.567644 0.245453
143 2 0.00316979 0.368982 0.276436
91 1 0.923646 0.451913 0.535129
29 2 0.911537 0.556259 0.601336
64 2 0.835454 0.377994 0.583056
134 2 0.0393536 0.40197 0.545102
69 2 0.845729 0.711739 0.722042
27 1 0.614098 0.475443 0.80034
130 2 0.716988 0.426369 0.749513
26 1 0.855505 0.807347 0.80155
114 2 0.9858 0.574341 0.781216
45 1 0.939735 0.639935 0.68612
60 2 0.744126 0.86079 0.811594
59 1 0.644349 0.859921 0.884643
38 1 0.616612 0.635907 0.991311
100 2 0.628688 0.548131 0.902256
3 2 0.894386 0.754931 0.908026
107 2 0.636702 0.747077 0.938376
73 1 0.968764 0.714081 0.00146192
1 2 0.00199016 0.407797 0.89848
31 2 0.0243283 0.821939 0.0363743
10 2 0.0355694 0.615359 0.96477
71 1 0.0455912 0.524598 0.879327
