ITEM: TIMESTEP
2
ITEM: NUMBER OF ATOMS
150
ITEM: BOX BOUNDS pp pp pp
0.0000000000000000e+00 1.3038101399354453e+01
0.0000000000000000e+00 1.3038101399354453e+01
0.0000000000000000e+00 1.3038101399354453e+01
ITEM: ATOMS id type xs ys zs
70 2 0.154667 0.408347 0.154636
128 2 0.303296 0.543478 0.110304
40 1 0.314573 0.159659 0.235127
32 1 0.126878 0.299922 0.207956
50 1 0.184323 0.512175 0.0942398
101 2 0.302951 0.11416 0.118039
95 2 0.0775572 0.207584 0.13854
62 2 0.235121 0.252444 0.250133
124 2 0.435029 0.190636 0.24979
55 1 0.5417 0.143019 0.295111
54 1 0.493418 0.557733 0.397214
21 2 0.383814 0.559115 0.339257
14 2 0.0462768 0.32255 0.299585
68 2 0.213547 0.528968 0.449684
72 2 0.188156 0.45277 0.629782
94 1 0.170917 0.167286 0.550389
36 2 0.293785 0.172704 0.573599
146 2 0.481392 0.50808 0.511815
19 1 0.124995 0.502501 0.533414
20 1 0.404591 0.128411 0.611119
113 2 0.496286 0.212461 0.625192
79 2 0.0874611 0.193782 0.642037
42 2 0.134926 0.242296 0.457945
127 2 0.290263 0.348834 0.791858
33 1 0.212182 0.438753 0.751156
116 2 0.477682 0.262803 0.816069
112 2 0.0955578 0.437744 0.800152
131 2 0.531885 0.40361 0.689299
56 2 0.268989 0.54307 0.792108
52 1 0.549665 0.281337 0.715243
139 2 0.341477 0.238783 0.960518
117 2 0.436353 0.422285 0.920933
77 1 0.366841 0.126592 0.0115022
110 2 0.160414 0.48509 0.97502
16 1 0.533452 0.498515 0.941996
9 2 0.487677 0.132254 0.0470218
149 2 0.557008 0.576453 0.847697
140 2 0.500439 0.562492 0.0446233
34 1 0.380983 0.320036 0.873817
83 1 0.469766 0.823043 0.16784
65 1 0.391453 0.619331 0.0670641
104 2 0.411068 0.715595 0.143348
138 2 0.384977 0.904867 0.211808
148 2 0.10903 0.61015 0.119895
142 2 0.529326 0.852119 0.06197
96 1 0.276051 0.608227 0.377769
78 1 0.311686 0.939368 0.306215
118 2 0.374791 0.898495 0.413658
125 2 0.511803 0.0333009 0.346796
115 2 0.199471 0.645239 0.288215
87 2 0.198574 0.889546 0.308383
121 2 0.551943 0.807633 0.262421
61 2 0.532772 0.676266 0.409494
39 2 0.298018 0.0625573 0.31345
92 1 0.0747522 0.870059 0.324787
102 2 0.0625833 0.87232 0.449539
58 1 0.485327 0.962189 0.444806
89 1 0.0828702 0.648474 0.237377
137 2 0.571552 0.873705 0.449947
132 2 0.309415 0.709412 0.446681
90 2 0.231568 0.867431 0.551703
80 1 0.334057 0.814778 0.506419
67 1 0.121266 0.927105 0.545497
41 2 0.421124 0.813708 0.594739
12 2 0.146218 0.0469131 0.520441
44 2 0.448817 0.0370013 0.536469
24 2 0.0593239 0.913751 0.651932
120 2 0.447236 0.898185 0.780888
75 1 0.453229 0.792116 0.714289
28 2 0.365256 0.715914 0.759268
48 1 0.436907 0.0165563 0.819298
49 2 0.55474 0.0586754 0.838338
97 1 0.292905 0.655343 0.84039
136 2 0.565755 0.741375 0.730826
133 2 0.384702 0.0778708 0.723849
37 2 0.349492 0.651954 0.952443
108 2 0.369523 0.0380542 0.922821
15 2 0.181914 0.70947 0.856233
25 1 0.993824 0.129906 0.0882122
109 2 0.694875 0.457629 0.173206
11 1 0.600929 0.169052 0.0845101
99 2 0.618658 0.12214 0.198893
135 2 0.907207 0.0976596 0.174512
74 2 0.607495 0.292706 0.095554
63 1 0.687935 0.386215 0.0716463
126 2 0.774898 0.554705 0.335059
51 2 0.585595 0.219249 0.382262
88 2 0.727379 0.353272 0.351141
84 1 0.6743 0.283953 0.441974
17 1 0.699995 0.463521 0.297533
122 2 0.585083 0.494635 0.340677
5 2 0.858756 0.0782671 0.374776
93 1 0.0367197 0.314558 0.422402
81 2 0.936539 0.247466 0.451826
43 2 0.920047 0.0977682 0.574203
4 2 0.629286 0.36569 0.524835
103 2 0.657173 0.544638 0.608403
129 2 0.749126 0.199744 0.495866
22 1 0.861842 0.150115 0.476092
7 1 0.569448 0.45945 0.584575
144 2 0.0445095 0.41747 0.490949
2 1 0.764204 0.550778 0.674879
76 2 0.672872 0.26514 0.729259
13 1 0.789416 0.311531 0.74463
23 2 0.781667 0.434531 0.719088
106 2 0.883883 0.259957 0.679282
86 1 0.968327 0.167289 0.669037
6 2 0.958973 0.0991615 0.772643
30 2 0.640892 0.440276 0.96908
111 2 0.972785 0.401683 0.960176
57 1 0.888892 0.307635 0.969757
98 2 0.941233 0.197212 0.996851
123 2 0.676353 0.13344 0.992495
35 2 0.824845 0.298164 0.863161
85 1 0.0530506 0.482969 0.90895
119 2 0.801123 0.337592 0.0531963
145 2 0.911716 0.869752 0.0958562
141 2 0.721684 0.811255 0.093641
18 1 0.81915 0.828926 0.169186
147 2 0.843752 0.723115 0.229328
53 2 0.806538 0.926436 0.248123
105 2 0.718797 0.742864 0.37359
150 2 0.00124454 0.962577 0.284716
82 1 0.819559 0.670816 0.340348
47 1 0.600032 0.776651 0.375676
66 2 0.904335 0.679321 0.429554
8 1 0.889183 0.0184127 0.270209
46 2 0.0474712 0.765502 0.264335
143 2 0.0140276 0.564847 0.293819
91 1 0.944173 0.656577 0.544501
29 2 0.935198 0.766815 0.602039
64 2 0.859574 0.583928 0.602766
134 2 0.0594326 0.607752 0.55699
69 2 0.873664 0.919449 0.730676
27 1 0.629191 0.674344 0.81549
130 2 0.736674 0.631548 0.767664
26 1 0.877562 0.0136601 0.812492
114 2 0.000606297 0.773531 0.790082
45 1 0.964348 0.84337 0.693657
60 2 0.765693 0.067135 0.821299
59 1 0.666704 0.0556973 0.894979
38 1 0.639377 0.83581 0.00354703
100 2 0.632382 0.744248 0.91955
3 2 0.918154 0.958503 0.916587
107 2 0.672558 0.941081 0.946041
73 1 0.989999 0.914172 0.00971281
1 2 0.019376 0.604252 0.899442
31 2 0.0424152 0.0198054 0.052083
10 2 0.058205 0.816237 0.973087
71 1 0.0616513 0.723607 0.887158
