ITEM: TIMESTEP
2
ITEM: NUMBER OF ATOMS
150
ITEM: BOX BOUNDS pp pp pp
0.0000000000000000e+00 1.3096967960058155e+01
0.0000000000000000e+00 1.3096967960058155e+01
0.0000000000000000e+00 1.3096967960058155e+01
ITEM: ATOMS id type xs ys zs
70 2 0.0971777 0.316411 0.0393897
128 2 0.23312 0.462969 0.0203038
40 1 0.274543 0.0728555 0.125666
32 1 0.080746 0.213131 0.105397
50 1 0.115523 0.43082 0.997345
101 2 0.281949 0.029864 0.00789604
95 2 0.0142988 0.123571 0.0483383
62 2 0.191794 0.16375 0.133779
124 2 0.391595 0.10828 0.15145
55 1 0.498042 0.049359 0.181496
54 1 0.423835 0.488306 0.310766
21 2 0.323313 0.487482 0.239801
14 2 0.0106882 0.244688 0.202323
68 2 0.15793 0.441803 0.336983
72 2 0.141683 0.402546 0.527976
94 1 0.102992 0.0823766 0.457486
36 2 0.225111 0.0898821 0.478338
146 2 0.409257 0.432313 0.420696
19 1 0.0732739 0.424396 0.425557
20 1 0.336445 0.0422894 0.505496
113 2 0.429214 0.122596 0.527416
79 2 0.0244219 0.128042 0.544472
42 2 0.072117 0.139903 0.352702
127 2 0.225161 0.293324 0.69038
33 1 0.15378 0.388666 0.649918
116 2 0.405136 0.183895 0.711928
112 2 0.0353467 0.386028 0.692239
131 2 0.469496 0.316697 0.583645
56 2 0.201359 0.494048 0.698258
52 1 0.482325 0.19486 0.614928
139 2 0.273605 0.158353 0.850559
117 2 0.368112 0.339881 0.824101
77 1 0.335891 0.0620756 0.90079
110 2 0.0953423 0.425758 0.874661
16 1 0.466881 0.408218 0.855717
9 2 0.451465 0.102973 0.928472
149 2 0.516102 0.4734 0.762393
140 2 0.423856 0.488189 0.940715
34 1 0.310554 0.244766 0.767991
83 1 0.411428 0.737533 0.0722279
65 1 0.318955 0.541928 0.979878
104 2 0.354187 0.627423 0.0618478
138 2 0.319439 0.815196 0.107618
148 2 0.0380249 0.518231 0.0424781
142 2 0.462697 0.762079 0.960345
96 1 0.214997 0.532891 0.278431
78 1 0.241721 0.852189 0.197061
118 2 0.310323 0.80901 0.303735
125 2 0.460926 0.947734 0.241905
115 2 0.142299 0.586367 0.194656
87 2 0.122966 0.817238 0.196376
121 2 0.491454 0.729023 0.170807
61 2 0.45426 0.608274 0.324593
39 2 0.24654 0.97644 0.200826
92 1 0.00185082 0.792211 0.227857
102 2 0.00721614 0.789598 0.353289
58 1 0.415339 0.882035 0.334934
89 1 0.0221607 0.569253 0.156234
137 2 0.50012 0.797152 0.360894
132 2 0.241175 0.622469 0.363375
90 2 0.180317 0.796965 0.446493
80 1 0.276656 0.731835 0.407231
67 1 0.064315 0.83951 0.452456
41 2 0.355588 0.727347 0.502539
12 2 0.0714668 0.962739 0.442363
44 2 0.371609 0.959697 0.419387
24 2 0.015968 0.801737 0.559236
120 2 0.415038 0.820432 0.67249
75 1 0.389674 0.708995 0.621863
28 2 0.294974 0.667216 0.69137
48 1 0.393221 0.938757 0.704811
49 2 0.505887 0.9943 0.70265
97 1 0.216037 0.601258 0.760887
136 2 0.482951 0.628521 0.639553
133 2 0.321002 0.98265 0.613951
37 2 0.264708 0.58914 0.875878
108 2 0.35069 0.969026 0.818544
15 2 0.102297 0.651111 0.770441
25 1 0.917993 0.0624241 0.000138955
109 2 0.611407 0.358659 0.0998529
11 1 0.567778 0.0807567 0.969908
99 2 0.550095 0.0144876 0.0736281
135 2 0.83907 0.0254055 0.0909857
74 2 0.623363 0.183281 0.00794139
63 1 0.637917 0.305526 0.992642
126 2 0.703734 0.489653 0.226569
51 2 0.561963 0.118182 0.262072
88 2 0.668735 0.286546 0.277035
84 1 0.610983 0.197799 0.343949
17 1 0.6314 0.389715 0.217954
122 2 0.522288 0.431389 0.262403
5 2 0.785331 0.00491391 0.291478
93 1 0.987748 0.227557 0.321486
81 2 0.874653 0.179061 0.342208
43 2 0.860639 0.0394761 0.480361
4 2 0.529556 0.266284 0.40764
103 2 0.600538 0.440786 0.484281
129 2 0.690378 0.136723 0.41703
22 1 0.799812 0.0877194 0.383343
7 1 0.499747 0.367569 0.474918
144 2 0.00884488 0.323019 0.396224
2 1 0.699849 0.460925 0.559466
76 2 0.604934 0.183899 0.635558
13 1 0.719183 0.232235 0.654902
23 2 0.7144 0.349946 0.614206
106 2 0.822126 0.1824 0.604182
86 1 0.909772 0.0975007 0.58066
6 2 0.910479 0.0185997 0.677
30 2 0.558852 0.341485 0.904371
111 2 0.919919 0.32399 0.843753
57 1 0.823011 0.251481 0.873321
98 2 0.861033 0.142386 0.92195
123 2 0.626734 0.0344013 0.871777
35 2 0.746565 0.231223 0.776688
85 1 0.992146 0.416499 0.804517
119 2 0.754237 0.31917 0.952762
145 2 0.83645 0.813419 0.0111957
141 2 0.652688 0.753086 0.981106
18 1 0.735272 0.773111 0.0710682
147 2 0.75232 0.671212 0.1397
53 2 0.717863 0.870631 0.149079
105 2 0.647656 0.667964 0.301167
150 2 0.917316 0.880387 0.203177
82 1 0.74277 0.606111 0.245869
47 1 0.529962 0.700374 0.288882
66 2 0.836805 0.600393 0.324542
8 1 0.811535 0.946752 0.184628
46 2 0.974862 0.684028 0.172629
143 2 0.977032 0.483296 0.229797
91 1 0.881319 0.566767 0.435164
29 2 0.873726 0.673677 0.499811
64 2 0.798168 0.490502 0.490182
134 2 0.997156 0.521248 0.446636
69 2 0.833154 0.846139 0.615896
27 1 0.567748 0.577167 0.71658
130 2 0.667249 0.543417 0.648555
26 1 0.823299 0.934161 0.702427
114 2 0.919145 0.68587 0.692861
45 1 0.906861 0.750659 0.588886
60 2 0.710204 0.984043 0.695821
59 1 0.609949 0.970268 0.76641
38 1 0.567977 0.75663 0.88912
100 2 0.579075 0.657675 0.812712
3 2 0.833823 0.883893 0.815934
107 2 0.589015 0.855384 0.814835
73 1 0.903941 0.84735 0.913759
1 2 0.945764 0.531972 0.811943
31 2 0.957894 0.956051 0.94648
10 2 0.958708 0.74053 0.878906
71 1 0.980083 0.651036 0.794672
