ITEM: TIMESTEP
2
ITEM: NUMBER OF ATOMS
150
ITEM: BOX BOUNDS pp pp pp
0.0000000000000000e+00 1.3088245918731957e+01
0.0000000000000000e+00 1.3088245918731957e+01
0.0000000000000000e+00 1.3088245918731957e+01
ITEM: ATOMS id type xs ys zs
70 2 0.0955565 0.315934 0.0373643
128 2 0.233362 0.463149 0.0129295
40 1 0.273995 0.0720429 0.122551
32 1 0.0793156 0.212479 0.102159
50 1 0.115506 0.428947 0.992698
101 2 0.280767 0.0302281 0.0045693
95 2 0.0140106 0.124142 0.0432043
62 2 0.189906 0.161506 0.128707
124 2 0.39104 0.107224 0.149242
55 1 0.498449 0.0479244 0.176197
54 1 0.425237 0.489446 0.307646
21 2 0.323238 0.484545 0.238207
14 2 0.0143207 0.244435 0.202078
68 2 0.15471 0.443742 0.334603
72 2 0.139771 0.397862 0.52619
94 1 0.0982425 0.0798443 0.459949
36 2 0.22156 0.0886593 0.474355
146 2 0.405504 0.436937 0.418718
19 1 0.0718252 0.420635 0.423464
20 1 0.333005 0.0415774 0.502679
113 2 0.425571 0.123593 0.521361
79 2 0.0234616 0.134651 0.545102
42 2 0.0624141 0.130628 0.352756
127 2 0.217247 0.292089 0.692418
33 1 0.149262 0.387839 0.649068
116 2 0.397807 0.180716 0.705197
112 2 0.0303905 0.387548 0.689719
131 2 0.464208 0.315174 0.581281
56 2 0.202943 0.491024 0.695581
52 1 0.479292 0.193318 0.611496
139 2 0.271338 0.160958 0.849468
117 2 0.366714 0.340169 0.81656
77 1 0.332595 0.0625325 0.895682
110 2 0.0920991 0.419799 0.870898
16 1 0.465349 0.408429 0.846899
9 2 0.450471 0.0991695 0.920319
149 2 0.516797 0.469863 0.752541
140 2 0.421447 0.492976 0.927187
34 1 0.307137 0.244775 0.764265
83 1 0.410873 0.737432 0.0672428
65 1 0.316569 0.544637 0.970232
104 2 0.35215 0.628203 0.0548436
138 2 0.319526 0.815474 0.104349
148 2 0.0380271 0.515896 0.0389146
142 2 0.461567 0.760325 0.954299
96 1 0.214691 0.532348 0.274482
78 1 0.243437 0.852134 0.195763
118 2 0.314031 0.806409 0.298952
125 2 0.457125 0.944611 0.232875
115 2 0.141322 0.584588 0.190406
87 2 0.123301 0.822077 0.202671
121 2 0.491428 0.72664 0.164304
61 2 0.448981 0.611417 0.319744
39 2 0.248119 0.976271 0.19998
92 1 0.00197362 0.790569 0.227225
102 2 0.00531592 0.788994 0.353265
58 1 0.415228 0.882883 0.330433
89 1 0.0208613 0.566041 0.152805
137 2 0.504138 0.801166 0.354178
132 2 0.239527 0.624072 0.357238
90 2 0.183969 0.797931 0.441554
80 1 0.27977 0.731262 0.401812
67 1 0.0658302 0.833315 0.453818
41 2 0.359916 0.727243 0.496005
12 2 0.0690016 0.957576 0.460286
44 2 0.368996 0.956754 0.417116
24 2 0.0180716 0.785606 0.557056
120 2 0.412316 0.817742 0.67322
75 1 0.386412 0.709425 0.617112
28 2 0.287979 0.668489 0.681767
48 1 0.391285 0.936542 0.702805
49 2 0.504345 0.990657 0.698446
97 1 0.212144 0.601295 0.753442
136 2 0.478732 0.628941 0.635736
133 2 0.320228 0.981649 0.611624
37 2 0.258679 0.594413 0.869717
108 2 0.345306 0.967938 0.814248
15 2 0.0954396 0.643495 0.760028
25 1 0.914786 0.0640479 0.997811
109 2 0.612425 0.360398 0.095036
11 1 0.567177 0.0800949 0.962143
99 2 0.551977 0.0154036 0.0684121
135 2 0.839801 0.0290171 0.093431
74 2 0.621915 0.18361 0.000191609
63 1 0.633406 0.306428 0.986489
126 2 0.707726 0.489406 0.211989
51 2 0.563911 0.119752 0.254178
88 2 0.670639 0.292082 0.277615
84 1 0.609406 0.201242 0.33816
17 1 0.634072 0.391563 0.212651
122 2 0.525248 0.433074 0.260679
5 2 0.782017 0.00337573 0.289577
93 1 0.984357 0.224951 0.319362
81 2 0.87035 0.177747 0.334276
43 2 0.860378 0.0448476 0.478324
4 2 0.525126 0.267693 0.402235
103 2 0.592143 0.440207 0.484284
129 2 0.687693 0.138167 0.411369
22 1 0.797197 0.0874663 0.37989
7 1 0.492015 0.366811 0.472598
144 2 0.00601304 0.31953 0.395388
2 1 0.693335 0.460412 0.555492
76 2 0.601944 0.186456 0.636108
13 1 0.71628 0.23547 0.657659
23 2 0.711433 0.352701 0.615405
106 2 0.819191 0.186763 0.60553
86 1 0.907634 0.103316 0.579725
6 2 0.905112 0.023706 0.675621
30 2 0.55234 0.337132 0.898127
111 2 0.909906 0.327589 0.84036
57 1 0.816431 0.25458 0.875855
98 2 0.856047 0.14649 0.923936
123 2 0.626543 0.0301282 0.866157
35 2 0.739067 0.232352 0.780262
85 1 0.98658 0.415964 0.802712
119 2 0.750592 0.325577 0.953741
145 2 0.831479 0.816535 0.00177128
141 2 0.649906 0.753471 0.979459
18 1 0.736019 0.772271 0.0671203
147 2 0.756266 0.668467 0.131121
53 2 0.719954 0.865222 0.150422
105 2 0.642551 0.661671 0.29036
150 2 0.915028 0.875903 0.198205
82 1 0.741792 0.605206 0.237236
47 1 0.526919 0.701508 0.283437
66 2 0.831315 0.5972 0.321288
8 1 0.810946 0.945536 0.183052
46 2 0.976697 0.683131 0.168373
143 2 0.972817 0.478745 0.223499
91 1 0.876684 0.560783 0.430891
29 2 0.872802 0.665044 0.500244
64 2 0.791217 0.486345 0.48451
134 2 0.992834 0.516148 0.441339
69 2 0.835799 0.846218 0.607951
27 1 0.564387 0.576962 0.710267
130 2 0.662845 0.548133 0.639487
26 1 0.821356 0.933528 0.69489
114 2 0.908374 0.687219 0.697375
45 1 0.904032 0.744486 0.588148
60 2 0.706655 0.979348 0.689177
59 1 0.608072 0.964116 0.761713
38 1 0.567753 0.751905 0.88566
100 2 0.577953 0.652119 0.810308
3 2 0.834094 0.878843 0.80612
107 2 0.586841 0.849726 0.809875
73 1 0.903501 0.847089 0.905723
1 2 0.940707 0.531113 0.814204
31 2 0.951612 0.958023 0.939993
10 2 0.964301 0.740904 0.879152
71 1 0.975149 0.649335 0.794664
