ITEM: TIMESTEP
2
ITEM: NUMBER OF ATOMS
150
ITEM: BOX BOUNDS pp pp pp
0.0000000000000000e+00 1.3030280538658019e+01
0.0000000000000000e+00 1.3030280538658019e+01
0.0000000000000000e+00 1.3030280538658019e+01
ITEM: ATOMS id type xs ys zs
70 2 0.166391 0.413744 0.166349
128 2 0.313445 0.547541 0.110392
40 1 0.319908 0.164706 0.242651
32 1 0.134758 0.304112 0.215109
50 1 0.194059 0.514384 0.099811
101 2 0.307748 0.119055 0.126093
95 2 0.0940679 0.217808 0.133005
62 2 0.238218 0.253725 0.264283
124 2 0.438692 0.201612 0.253883
55 1 0.545304 0.155507 0.299703
54 1 0.505406 0.566506 0.415506
21 2 0.400532 0.572566 0.349617
14 2 0.0478211 0.319247 0.302581
68 2 0.225198 0.542838 0.456236
72 2 0.193078 0.456978 0.632585
94 1 0.174611 0.168486 0.554033
36 2 0.298244 0.175526 0.576014
146 2 0.486972 0.508071 0.524233
19 1 0.133623 0.509989 0.534661
20 1 0.410225 0.132382 0.613278
113 2 0.499061 0.21801 0.633755
79 2 0.0922552 0.195783 0.647172
42 2 0.134575 0.242066 0.46223
127 2 0.295477 0.352611 0.799395
33 1 0.218546 0.441755 0.754012
116 2 0.480441 0.263882 0.827256
112 2 0.102353 0.442072 0.803299
131 2 0.534201 0.406311 0.700957
56 2 0.273747 0.548112 0.793356
52 1 0.551409 0.283993 0.72646
139 2 0.348077 0.249462 0.974033
117 2 0.443292 0.430552 0.923372
77 1 0.370719 0.134208 0.0193378
110 2 0.16889 0.485686 0.980921
16 1 0.539237 0.509495 0.939548
9 2 0.491121 0.130193 0.0546997
149 2 0.564759 0.580049 0.839685
140 2 0.502487 0.584357 0.0335336
34 1 0.386103 0.326605 0.883048
83 1 0.480373 0.826432 0.170919
65 1 0.391123 0.632347 0.0634926
104 2 0.408312 0.729015 0.14025
138 2 0.404836 0.91666 0.216693
148 2 0.123304 0.614813 0.127716
142 2 0.552534 0.848218 0.0706046
96 1 0.291732 0.620675 0.386199
78 1 0.328529 0.94467 0.311228
118 2 0.391112 0.903343 0.418581
125 2 0.524052 0.0434589 0.351561
115 2 0.222228 0.661181 0.292164
87 2 0.217999 0.88937 0.307879
121 2 0.555813 0.799228 0.268521
61 2 0.544069 0.684413 0.432425
39 2 0.309214 0.0672512 0.321502
92 1 0.0948174 0.871004 0.328876
102 2 0.0879157 0.864101 0.453643
58 1 0.502118 0.968311 0.44879
89 1 0.103906 0.653856 0.245724
137 2 0.59033 0.881213 0.448025
132 2 0.323239 0.717865 0.460981
90 2 0.251043 0.879603 0.563519
80 1 0.351609 0.824558 0.515945
67 1 0.134413 0.925494 0.55235
41 2 0.442903 0.82439 0.60048
12 2 0.149296 0.0475208 0.52687
44 2 0.460082 0.0431439 0.53909
24 2 0.0620136 0.908836 0.651405
120 2 0.447647 0.900391 0.79508
75 1 0.469191 0.801129 0.721506
28 2 0.384028 0.71686 0.757599
48 1 0.434361 0.0210836 0.825424
49 2 0.552588 0.0634549 0.840516
97 1 0.299985 0.663646 0.832374
136 2 0.584029 0.758848 0.745944
133 2 0.388677 0.0762864 0.723322
37 2 0.342014 0.664187 0.950893
108 2 0.36688 0.0486693 0.927196
15 2 0.190699 0.724198 0.827863
25 1 0.00761473 0.141712 0.0837268
109 2 0.671356 0.439418 0.184406
11 1 0.60765 0.164071 0.0830259
99 2 0.625795 0.144876 0.205053
135 2 0.929646 0.100514 0.174958
74 2 0.616575 0.28597 0.0651379
63 1 0.687533 0.388173 0.0727294
126 2 0.785914 0.553991 0.310168
51 2 0.585999 0.230464 0.389149
88 2 0.734897 0.358682 0.362623
84 1 0.678187 0.288179 0.449712
17 1 0.701918 0.463527 0.302424
122 2 0.59798 0.505887 0.358944
5 2 0.87479 0.0863179 0.375645
93 1 0.0395092 0.318577 0.426454
81 2 0.936224 0.257958 0.461113
43 2 0.924397 0.101742 0.577631
4 2 0.633802 0.366496 0.535845
103 2 0.660947 0.549018 0.613872
129 2 0.75172 0.200232 0.499495
22 1 0.866669 0.155276 0.479506
7 1 0.575477 0.459877 0.596743
144 2 0.0551968 0.42377 0.48997
2 1 0.770776 0.552559 0.675796
76 2 0.674596 0.26816 0.7394
13 1 0.791705 0.314013 0.750769
23 2 0.782064 0.435284 0.718644
106 2 0.887249 0.257898 0.69086
86 1 0.973337 0.166801 0.675495
6 2 0.963631 0.094981 0.777072
30 2 0.645816 0.455929 0.976202
111 2 0.977657 0.415476 0.959217
57 1 0.892226 0.324913 0.97505
98 2 0.944589 0.214728 0.00367561
123 2 0.678013 0.103523 0.000596599
35 2 0.824881 0.311425 0.870866
85 1 0.0642444 0.491984 0.911435
119 2 0.807711 0.356544 0.0618628
145 2 0.946278 0.874386 0.099936
141 2 0.751271 0.829344 0.0860763
18 1 0.846986 0.836805 0.165795
147 2 0.857597 0.727092 0.222205
53 2 0.833751 0.930009 0.249595
105 2 0.726532 0.73667 0.367538
150 2 0.0255636 0.969069 0.29362
82 1 0.827878 0.669692 0.328456
47 1 0.610605 0.77707 0.380554
66 2 0.909212 0.673519 0.420868
8 1 0.913261 0.02479 0.273902
46 2 0.0591628 0.767356 0.272076
143 2 0.0443463 0.565504 0.305371
91 1 0.94639 0.656088 0.537344
29 2 0.932751 0.769226 0.58965
64 2 0.862361 0.58348 0.597693
134 2 0.063098 0.612541 0.55686
69 2 0.874387 0.920387 0.727702
27 1 0.643186 0.676557 0.819871
130 2 0.74877 0.632157 0.770186
26 1 0.876433 0.0125979 0.812578
114 2 0.995767 0.766203 0.778044
45 1 0.960774 0.84176 0.685163
60 2 0.765409 0.0691351 0.819065
59 1 0.665778 0.045797 0.889779
38 1 0.658271 0.831303 0.00354572
100 2 0.657491 0.72875 0.932445
3 2 0.914105 0.95778 0.918675
107 2 0.670962 0.92434 0.92089
73 1 0.0044269 0.923562 0.000938222
1 2 0.0404181 0.615244 0.902743
31 2 0.0532453 0.0348471 0.0347478
10 2 0.0714042 0.83042 0.950474
71 1 0.073167 0.733043 0.870318
