ITEM: TIMESTEP
2
ITEM: NUMBER OF ATOMS
150
ITEM: BOX BOUNDS pp pp pp
0.0000000000000000e+00 1.3055751747685587e+01
0.0000000000000000e+00 1.3055751747685587e+01
0.0000000000000000e+00 1.3055751747685587e+01
ITEM: ATOMS id type xs ys zs
70 2 0.115233 0.436409 0.135441
128 2 0.273025 0.562421 0.0917825
40 1 0.279456 0.193147 0.22042
32 1 0.0891985 0.328163 0.190965
50 1 0.15278 0.53706 0.0720884
101 2 0.273547 0.145364 0.102328
95 2 0.0468285 0.234561 0.117662
62 2 0.195478 0.281478 0.233361
124 2 0.40076 0.227714 0.233998
55 1 0.508425 0.178989 0.280739
54 1 0.463565 0.593761 0.38999
21 2 0.357144 0.596812 0.325828
14 2 0.00574439 0.349314 0.278821
68 2 0.179433 0.570256 0.426672
72 2 0.166155 0.48436 0.606697
94 1 0.130863 0.184886 0.528795
36 2 0.253994 0.189296 0.556321
146 2 0.448136 0.541735 0.501169
19 1 0.101802 0.531083 0.514344
20 1 0.369017 0.158361 0.59732
113 2 0.454634 0.246887 0.610942
79 2 0.0487539 0.213377 0.62144
42 2 0.0958674 0.259757 0.436346
127 2 0.260689 0.379537 0.773147
33 1 0.186407 0.469449 0.725706
116 2 0.447041 0.288236 0.807356
112 2 0.0690086 0.462442 0.776544
131 2 0.492246 0.430975 0.679057
56 2 0.241624 0.573692 0.77007
52 1 0.510557 0.310476 0.701593
139 2 0.304981 0.272897 0.944131
117 2 0.408207 0.452933 0.902933
77 1 0.333567 0.164172 0.993293
110 2 0.130046 0.508963 0.953831
16 1 0.5064 0.530709 0.924661
9 2 0.454708 0.168863 0.0314386
149 2 0.521662 0.607756 0.828931
140 2 0.469767 0.594142 0.0269691
34 1 0.348949 0.349438 0.859575
83 1 0.433519 0.847277 0.156611
65 1 0.357693 0.645117 0.0535892
104 2 0.375042 0.741674 0.128875
138 2 0.350719 0.932407 0.199297
148 2 0.0836345 0.641534 0.10424
142 2 0.496894 0.879833 0.0523424
96 1 0.248854 0.648209 0.361441
78 1 0.279467 0.972901 0.292559
118 2 0.342338 0.933415 0.400428
125 2 0.476998 0.067808 0.327782
115 2 0.18016 0.68873 0.266997
87 2 0.165666 0.924563 0.29942
121 2 0.51605 0.830302 0.249554
61 2 0.500293 0.711784 0.406427
39 2 0.266959 0.0954499 0.296058
92 1 0.0416406 0.898599 0.306503
102 2 0.0323644 0.882605 0.433174
58 1 0.452967 0.997559 0.427191
89 1 0.0588111 0.684031 0.21997
137 2 0.539557 0.909554 0.430994
132 2 0.279808 0.745671 0.433961
90 2 0.202564 0.898374 0.541994
80 1 0.30486 0.85026 0.493737
67 1 0.0886464 0.945907 0.530191
41 2 0.395027 0.849602 0.581289
12 2 0.104617 0.066107 0.499397
44 2 0.418593 0.0707533 0.521154
24 2 0.0194738 0.93377 0.630923
120 2 0.414815 0.925434 0.773619
75 1 0.425759 0.822659 0.701506
28 2 0.337862 0.74812 0.746418
48 1 0.401527 0.0458269 0.807135
49 2 0.520716 0.0853044 0.825303
97 1 0.266269 0.684063 0.824071
136 2 0.536564 0.773199 0.718189
133 2 0.357661 0.106727 0.708794
37 2 0.316494 0.678662 0.938774
108 2 0.332673 0.0721392 0.908296
15 2 0.153465 0.736331 0.840975
25 1 0.960634 0.155538 0.0727267
109 2 0.65361 0.485277 0.160151
11 1 0.570613 0.200484 0.0698743
99 2 0.586321 0.165017 0.186974
135 2 0.877195 0.122511 0.159083
74 2 0.582072 0.324826 0.0682784
63 1 0.658416 0.424263 0.0541946
126 2 0.743948 0.584857 0.315411
51 2 0.54477 0.253879 0.371094
88 2 0.69129 0.3866 0.339445
84 1 0.63393 0.316995 0.428969
17 1 0.665096 0.495946 0.281713
122 2 0.553428 0.532469 0.329057
5 2 0.816769 0.112567 0.358365
93 1 0.0030763 0.33753 0.401225
81 2 0.90068 0.277236 0.44051
43 2 0.874635 0.123784 0.558224
4 2 0.587876 0.398379 0.511465
103 2 0.620099 0.574118 0.597817
129 2 0.711421 0.235198 0.479758
22 1 0.821391 0.182262 0.461271
7 1 0.529342 0.489631 0.577428
144 2 0.0226555 0.441999 0.469345
2 1 0.730367 0.577464 0.661492
76 2 0.634836 0.290964 0.708252
13 1 0.751919 0.338077 0.729248
23 2 0.739732 0.460967 0.706716
106 2 0.845188 0.283531 0.665616
86 1 0.928952 0.191102 0.651921
6 2 0.925196 0.11899 0.754266
30 2 0.614942 0.480671 0.953988
111 2 0.940395 0.425718 0.931675
57 1 0.854635 0.33609 0.950735
98 2 0.90281 0.225514 0.985678
123 2 0.64194 0.15827 0.977889
35 2 0.784121 0.32395 0.848725
85 1 0.0252363 0.505489 0.887818
119 2 0.775229 0.378606 0.0405903
145 2 0.877235 0.8991 0.0814823
141 2 0.688954 0.837536 0.0825035
18 1 0.786419 0.857124 0.154265
147 2 0.812716 0.753681 0.215727
53 2 0.768885 0.956093 0.233195
105 2 0.684506 0.772381 0.3586
150 2 0.962528 0.991984 0.281125
82 1 0.785798 0.701127 0.324723
47 1 0.566173 0.808381 0.362661
66 2 0.87189 0.705478 0.412639
8 1 0.853031 0.0504522 0.257301
46 2 0.0223356 0.798505 0.24022
143 2 0.000164562 0.597154 0.28066
91 1 0.90737 0.675599 0.528175
29 2 0.900499 0.785104 0.589522
64 2 0.823583 0.606482 0.587266
134 2 0.0244776 0.626471 0.544611
69 2 0.835337 0.941269 0.712637
27 1 0.595237 0.70413 0.800818
130 2 0.705274 0.659877 0.756418
26 1 0.840728 0.0343787 0.792702
114 2 0.969975 0.800544 0.77611
45 1 0.92705 0.865872 0.678704
60 2 0.732566 0.090671 0.809416
59 1 0.63291 0.0793215 0.882106
38 1 0.607811 0.859933 0.99331
100 2 0.606092 0.768053 0.908348
3 2 0.882735 0.981579 0.898989
107 2 0.633001 0.965491 0.933518
73 1 0.955315 0.938401 0.993362
1 2 0.99388 0.628897 0.883609
31 2 0.00946475 0.0440207 0.034258
10 2 0.0236172 0.841059 0.958058
71 1 0.0324672 0.749589 0.872772
