ITEM: TIMESTEP
2
ITEM: NUMBER OF ATOMS
150
ITEM: BOX BOUNDS pp pp pp
0.0000000000000000e+00 1.3106443942499137e+01
0.0000000000000000e+00 1.3106443942499137e+01
0.0000000000000000e+00 1.3106443942499137e+01
ITEM: ATOMS id type xs ys zs
70 2 0.0957502 0.319308 0.0437273
128 2 0.234344 0.466118 0.0175768
40 1 0.274356 0.0736857 0.124369
32 1 0.0795519 0.21314 0.10451
50 1 0.116415 0.432445 0.999395
101 2 0.276975 0.0283635 0.00756806
95 2 0.0166845 0.125687 0.0415401
62 2 0.190183 0.163082 0.133366
124 2 0.392531 0.108886 0.144347
55 1 0.499197 0.0501709 0.174794
54 1 0.426662 0.493227 0.307816
21 2 0.32434 0.488759 0.239179
14 2 0.00970087 0.240033 0.202968
68 2 0.155875 0.447212 0.343001
72 2 0.137974 0.394539 0.531568
94 1 0.0966922 0.0811434 0.463858
36 2 0.220164 0.0913982 0.47766
146 2 0.406837 0.437554 0.417311
19 1 0.0706116 0.419047 0.42871
20 1 0.332673 0.0457472 0.504724
113 2 0.424561 0.126954 0.527362
79 2 0.0179338 0.129731 0.549156
42 2 0.0608774 0.130149 0.355911
127 2 0.214376 0.291612 0.699863
33 1 0.150674 0.38928 0.654354
116 2 0.396251 0.18786 0.710856
112 2 0.032651 0.398635 0.696323
131 2 0.463272 0.31869 0.581953
56 2 0.209605 0.490424 0.698537
52 1 0.476981 0.198011 0.616259
139 2 0.269659 0.161362 0.855702
117 2 0.364783 0.343066 0.826813
77 1 0.328032 0.0601622 0.89963
110 2 0.0946374 0.4228 0.878202
16 1 0.465795 0.409623 0.855834
9 2 0.447175 0.0928428 0.924232
149 2 0.508563 0.477507 0.761129
140 2 0.429534 0.485738 0.947382
34 1 0.304987 0.247834 0.773111
83 1 0.408897 0.741265 0.0698084
65 1 0.323012 0.542087 0.977847
104 2 0.351756 0.631653 0.057193
138 2 0.31785 0.818066 0.107889
148 2 0.0404828 0.521641 0.0431017
142 2 0.460652 0.765298 0.959389
96 1 0.216866 0.53377 0.280888
78 1 0.244738 0.855844 0.200412
118 2 0.315746 0.814052 0.304285
125 2 0.459328 0.950678 0.236474
115 2 0.143758 0.584579 0.196166
87 2 0.12623 0.821208 0.20561
121 2 0.491104 0.733238 0.165622
61 2 0.456163 0.613475 0.320387
39 2 0.249035 0.979882 0.202722
92 1 0.00437492 0.793847 0.230478
102 2 0.00519175 0.792302 0.356065
58 1 0.419292 0.888446 0.334343
89 1 0.0239743 0.569416 0.157875
137 2 0.506165 0.803691 0.355472
132 2 0.246749 0.627694 0.359051
90 2 0.182859 0.799839 0.44332
80 1 0.28089 0.736418 0.404737
67 1 0.0654626 0.836725 0.456011
41 2 0.358876 0.731823 0.500389
12 2 0.0685167 0.960331 0.459366
44 2 0.374116 0.964801 0.419378
24 2 0.0197949 0.790344 0.560389
120 2 0.411905 0.822717 0.677906
75 1 0.38575 0.714874 0.621339
28 2 0.286191 0.672213 0.682659
48 1 0.388817 0.941531 0.705242
49 2 0.501107 0.997064 0.706837
97 1 0.220688 0.599147 0.758672
136 2 0.479853 0.636224 0.639333
133 2 0.319526 0.983589 0.61156
37 2 0.27893 0.587435 0.868719
108 2 0.336828 0.970297 0.81445
15 2 0.10529 0.640197 0.778698
25 1 0.918991 0.0645608 0.997838
109 2 0.608042 0.363393 0.0933752
11 1 0.5648 0.0791907 0.965285
99 2 0.553897 0.0122188 0.0693649
135 2 0.842239 0.0273355 0.0896773
74 2 0.615608 0.183781 0.0053116
63 1 0.634793 0.305096 0.989478
126 2 0.710987 0.489632 0.214037
51 2 0.560597 0.124642 0.252549
88 2 0.668126 0.293516 0.272607
84 1 0.608343 0.204191 0.336145
17 1 0.632469 0.395003 0.210233
122 2 0.525148 0.435965 0.259759
5 2 0.785541 0.006407 0.286171
93 1 0.983863 0.223216 0.321454
81 2 0.869876 0.178702 0.341273
43 2 0.854061 0.0402604 0.479836
4 2 0.527852 0.270587 0.404364
103 2 0.593446 0.443434 0.488262
129 2 0.685271 0.137642 0.407431
22 1 0.795394 0.0866275 0.380359
7 1 0.493792 0.36975 0.473544
144 2 0.00791897 0.317194 0.397147
2 1 0.693295 0.462659 0.562218
76 2 0.599644 0.186941 0.639197
13 1 0.714169 0.235394 0.659485
23 2 0.70748 0.353911 0.621472
106 2 0.814136 0.184935 0.603286
86 1 0.90185 0.0994432 0.580376
6 2 0.899804 0.0197704 0.675823
30 2 0.558229 0.338846 0.89777
111 2 0.915397 0.32717 0.842939
57 1 0.821116 0.253526 0.876403
98 2 0.85975 0.14469 0.922877
123 2 0.627397 0.0371431 0.867544
35 2 0.743725 0.232758 0.780598
85 1 0.990008 0.420125 0.810647
119 2 0.754001 0.31764 0.959412
145 2 0.835904 0.81469 0.00439401
141 2 0.651164 0.753858 0.984284
18 1 0.739284 0.772617 0.0689733
147 2 0.764026 0.669992 0.133541
53 2 0.723875 0.86706 0.150445
105 2 0.646351 0.664392 0.286469
150 2 0.920745 0.880479 0.19937
82 1 0.747372 0.605477 0.238785
47 1 0.531041 0.705681 0.282694
66 2 0.833347 0.601877 0.326819
8 1 0.815285 0.947293 0.181502
46 2 0.980544 0.685344 0.174916
143 2 0.974396 0.482325 0.226843
91 1 0.876846 0.562996 0.436493
29 2 0.874591 0.666396 0.506071
64 2 0.791781 0.488878 0.491798
134 2 0.991223 0.513522 0.446323
69 2 0.835781 0.840595 0.611827
27 1 0.561639 0.581153 0.715931
130 2 0.66126 0.548392 0.648081
26 1 0.819141 0.928594 0.696845
114 2 0.923475 0.683982 0.700368
45 1 0.910217 0.743721 0.593493
60 2 0.703554 0.971934 0.691951
59 1 0.606031 0.968108 0.766801
38 1 0.566831 0.756114 0.892072
100 2 0.574466 0.657668 0.815073
3 2 0.835697 0.878084 0.80938
107 2 0.584876 0.855993 0.819368
73 1 0.906204 0.849802 0.909004
1 2 0.944065 0.534913 0.826974
31 2 0.955778 0.959463 0.94189
10 2 0.97166 0.748081 0.880316
71 1 0.984364 0.650942 0.803343
