ITEM: TIMESTEP
2
ITEM: NUMBER OF ATOMS
150
ITEM: BOX BOUNDS pp pp pp
0.0000000000000000e+00 1.3034467783904361e+01
0.0000000000000000e+00 1.3034467783904361e+01
0.0000000000000000e+00 1.3034467783904361e+01
ITEM: ATOMS id type xs ys zs
70 2 0.157773 0.340312 0.148262
128 2 0.280998 0.509132 0.118432
40 1 0.339925 0.0961291 0.235416
32 1 0.146879 0.223489 0.188266
50 1 0.170613 0.454243 0.10121
101 2 0.321273 0.0333174 0.127748
95 2 0.111481 0.133928 0.108838
62 2 0.258436 0.188384 0.232363
124 2 0.459457 0.12986 0.248516
55 1 0.566364 0.0848595 0.297083
54 1 0.492744 0.495649 0.404293
21 2 0.380135 0.496142 0.349913
14 2 0.0655426 0.229973 0.283188
68 2 0.231871 0.502072 0.496775
72 2 0.189708 0.362501 0.633049
94 1 0.183258 0.0870523 0.545598
36 2 0.304249 0.0834373 0.578035
146 2 0.485082 0.444377 0.519219
19 1 0.138308 0.431056 0.540824
20 1 0.414921 0.052982 0.627676
113 2 0.496847 0.146555 0.636535
79 2 0.0980801 0.109718 0.637129
42 2 0.162035 0.167894 0.453281
127 2 0.291484 0.262092 0.800296
33 1 0.219878 0.354545 0.754619
116 2 0.489391 0.196051 0.825065
112 2 0.105804 0.36092 0.805967
131 2 0.543854 0.336999 0.694246
56 2 0.278484 0.46018 0.790931
52 1 0.557671 0.214831 0.721987
139 2 0.350654 0.140831 0.958266
117 2 0.420515 0.335688 0.94393
77 1 0.379908 0.0349694 0.0180967
110 2 0.153279 0.439662 0.978891
16 1 0.510454 0.420114 0.964613
9 2 0.500707 0.0348653 0.0542797
149 2 0.522879 0.494638 0.864494
140 2 0.476551 0.490696 0.0618318
34 1 0.383153 0.233461 0.881374
83 1 0.485667 0.766169 0.170985
65 1 0.378743 0.568854 0.0691747
104 2 0.413686 0.669928 0.133906
138 2 0.41342 0.853995 0.224474
148 2 0.0786202 0.527779 0.143094
142 2 0.550078 0.795535 0.0678106
96 1 0.27474 0.550838 0.389946
78 1 0.332632 0.887294 0.313315
118 2 0.393955 0.847368 0.42167
125 2 0.535789 0.99079 0.372719
115 2 0.180579 0.55542 0.309594
87 2 0.217328 0.846568 0.29525
121 2 0.563915 0.732375 0.263936
61 2 0.528184 0.615994 0.418813
39 2 0.323367 0.0102221 0.325274
92 1 0.0959383 0.814698 0.30879
102 2 0.0885644 0.793373 0.432741
58 1 0.508225 0.905411 0.457602
89 1 0.0717095 0.58685 0.252838
137 2 0.589534 0.812597 0.444992
132 2 0.310452 0.66766 0.420663
90 2 0.24771 0.800928 0.552962
80 1 0.350237 0.753511 0.5007
67 1 0.134511 0.851536 0.533585
41 2 0.436496 0.733339 0.588065
12 2 0.15337 0.971723 0.505343
44 2 0.473313 0.962776 0.561814
24 2 0.0613055 0.842977 0.632678
120 2 0.44517 0.817454 0.777372
75 1 0.458699 0.712203 0.710556
28 2 0.367364 0.636485 0.750405
48 1 0.442799 0.930759 0.829169
49 2 0.561586 0.966757 0.851498
97 1 0.294778 0.577236 0.832903
136 2 0.566109 0.659405 0.74859
133 2 0.39505 0.00605596 0.741779
37 2 0.343733 0.587414 0.948925
108 2 0.376522 0.942983 0.934445
15 2 0.180129 0.627219 0.836564
25 1 0.0147288 0.0665016 0.0674893
109 2 0.672521 0.35443 0.180369
11 1 0.618215 0.0671422 0.0810559
99 2 0.636081 0.0430921 0.202202
135 2 0.937614 0.0432678 0.163465
74 2 0.62507 0.190333 0.0684774
63 1 0.684528 0.299839 0.0691148
126 2 0.77078 0.509318 0.273118
51 2 0.616866 0.171532 0.36872
88 2 0.74732 0.319768 0.364424
84 1 0.694074 0.236088 0.441779
17 1 0.698376 0.409001 0.289416
122 2 0.590684 0.44058 0.34879
5 2 0.881608 0.0365536 0.360139
93 1 0.0709062 0.241919 0.406727
81 2 0.968485 0.19145 0.457093
43 2 0.927515 0.0308964 0.562389
4 2 0.63277 0.303146 0.526923
103 2 0.666946 0.479757 0.620291
129 2 0.772908 0.151358 0.488848
22 1 0.883796 0.0990225 0.467043
7 1 0.577081 0.397481 0.589532
144 2 0.100297 0.354812 0.448898
2 1 0.763971 0.476088 0.702938
76 2 0.678618 0.184742 0.729821
13 1 0.794657 0.232239 0.741444
23 2 0.785152 0.353321 0.710873
106 2 0.894023 0.181998 0.682696
86 1 0.977285 0.0889916 0.663659
6 2 0.963124 0.0101853 0.758807
30 2 0.621965 0.367496 0.984623
111 2 0.974984 0.339623 0.950585
57 1 0.89148 0.248072 0.965261
98 2 0.951681 0.141909 0.991182
123 2 0.695101 0.0166356 0.997476
35 2 0.822955 0.233354 0.862509
85 1 0.055276 0.421018 0.90264
119 2 0.806127 0.27935 0.0503526
145 2 0.92887 0.803989 0.0922052
141 2 0.739228 0.741832 0.0968716
18 1 0.834391 0.776821 0.170971
147 2 0.864866 0.696551 0.260767
53 2 0.81924 0.888477 0.227921
105 2 0.72429 0.664128 0.382971
150 2 0.0150924 0.906152 0.284386
82 1 0.838661 0.594795 0.341395
47 1 0.608459 0.705751 0.380203
66 2 0.853209 0.54439 0.463787
8 1 0.908996 0.969754 0.259538
46 2 0.0792522 0.711404 0.242397
143 2 0.972953 0.553543 0.31892
91 1 0.92813 0.564477 0.561657
29 2 0.946252 0.688481 0.571094
64 2 0.868517 0.532262 0.667574
134 2 0.0384943 0.504483 0.562925
69 2 0.871667 0.83584 0.707045
27 1 0.608509 0.582437 0.838564
130 2 0.715133 0.52707 0.805781
26 1 0.8797 0.925095 0.794178
114 2 0.0066822 0.701145 0.761697
45 1 0.96684 0.767645 0.664524
60 2 0.771157 0.982419 0.813874
59 1 0.6795 0.953398 0.891907
38 1 0.651035 0.748752 0.0082659
100 2 0.621773 0.644476 0.946958
3 2 0.91501 0.873581 0.901791
107 2 0.685706 0.831604 0.921635
73 1 0.99478 0.843035 0.99407
1 2 0.0118947 0.536817 0.881663
31 2 0.0467018 0.953615 0.0237679
10 2 0.0572481 0.744204 0.948944
71 1 0.0600461 0.652194 0.862667
